ITEM: TIMESTEP
0
ITEM: NUMBER OF ATOMS
700
ITEM: BOX BOUNDS pp pp pp
-3.0000000000000000e+01 3.0000000000000000e+01
-3.0000000000000000e+01 3.0000000000000000e+01
0.0000000000000000e+00 1.0000000000000000e+02
ITEM: ATOMS id type xs ys zs
84 1 0.434945 0.443163 0.0509156
94 1 0.440302 0.43756 0.0267977
95 1 0.446139 0.43246 0.0401965
105 1 0.430112 0.449223 0
106 1 0.446139 0.43246 0.00267977
107 1 0.45241 0.427904 0.0160786
96 1 0.466048 0.420565 0.0428763
108 1 0.473305 0.417842 0.0187584
109 1 0.480777 0.415779 0.0321572
110 1 0.503876 0.4137 0.034837
111 1 0.511596 0.414395 0.0482358
112 1 0.533952 0.420565 0.0509156
119 1 0.488404 0.414395 0.0080393
120 1 0.511596 0.414395 0.0107191
121 1 0.519223 0.415779 0.0241179
122 1 0.540936 0.423928 0.0267977
129 1 0.526695 0.417842 0
123 1 0.54759 0.427904 0.0401965
124 1 0.565055 0.443163 0.0428763
130 1 0.54759 0.427904 0.00267977
131 1 0.553861 0.43246 0.0160786
132 1 0.569888 0.449223 0.0187584
56 1 0.425842 0.544308 0.0509156
66 1 0.422168 0.537482 0.0267977
67 1 0.419122 0.530354 0.0401965
68 1 0.413961 0.507744 0.0428763
78 1 0.419122 0.530354 0.00267977
79 1 0.416727 0.522982 0.0160786
80 1 0.413614 0.5 0.0187584
81 1 0.413961 0.492256 0.0321572
82 1 0.419122 0.469646 0.034837
83 1 0.422168 0.462518 0.0482358
91 1 0.415002 0.484575 0.0080393
92 1 0.422168 0.462518 0.0107191
93 1 0.425842 0.455692 0.0241179
11 1 0.583273 0.522982 0.0401965
12 1 0.574158 0.544308 0.0428763
21 1 0.586386 0.5 0
22 1 0.583273 0.522982 0.00267977
23 1 0.580878 0.530354 0.0160786
133 1 0.574158 0.455692 0.0321572
134 1 0.583273 0.477018 0.034837
135 1 0.584998 0.484575 0.0482358
136 1 0.586039 0.507744 0.0509156
137 1 0.577832 0.462518 0.0080393
138 1 0.584998 0.484575 0.0107191
139 1 0.586039 0.492256 0.0241179
140 1 0.584998 0.515425 0.0267977
54 1 0.446139 0.56754 0.034837
55 1 0.440302 0.56244 0.0482358
64 1 0.440302 0.56244 0.0107191
65 1 0.434945 0.556837 0.0241179
77 1 0.430112 0.550777 0
27 1 0.540936 0.576072 0.0482358
28 1 0.519223 0.584221 0.0509156
36 1 0.540936 0.576072 0.0107191
37 1 0.533952 0.579435 0.0241179
38 1 0.511596 0.585605 0.0267977
39 1 0.503876 0.586299 0.0401965
40 1 0.480777 0.584221 0.0428763
49 1 0.526695 0.582158 0
50 1 0.503876 0.586299 0.00267977
51 1 0.496124 0.586299 0.0160786
52 1 0.473305 0.582158 0.0187584
53 1 0.466048 0.579435 0.0321572
63 1 0.459064 0.576072 0.0080393
24 1 0.569888 0.550777 0.0187584
25 1 0.565055 0.556837 0.0321572
26 1 0.54759 0.572096 0.034837
35 1 0.559698 0.56244 0.0080393
72 1 0.430112 0.449223 0.0750335
73 1 0.434945 0.443163 0.0884324
74 1 0.45241 0.427904 0.0911121
85 1 0.440302 0.43756 0.0643144
75 1 0.459064 0.423928 0.104511
76 1 0.480777 0.415779 0.107191
86 1 0.459064 0.423928 0.0669942
87 1 0.466048 0.420565 0.0803931
88 1 0.488404 0.414395 0.0830728
89 1 0.496124 0.4137 0.0964716
90 1 0.519223 0.415779 0.0991514
97 1 0.473305 0.417842 0.0562751
98 1 0.496124 0.4137 0.0589549
99 1 0.503876 0.4137 0.0723537
100 1 0.526695 0.417842 0.0750335
101 1 0.533952 0.420565 0.0884324
113 1 0.540936 0.423928 0.0643144
102 1 0.553861 0.43246 0.0911121
103 1 0.559698 0.43756 0.104511
114 1 0.559698 0.43756 0.0669942
115 1 0.565055 0.443163 0.0803931
125 1 0.569888 0.449223 0.0562751
45 1 0.425842 0.544308 0.0884324
46 1 0.416727 0.522982 0.0911121
47 1 0.415002 0.515425 0.104511
48 1 0.413961 0.492256 0.107191
57 1 0.422168 0.537482 0.0643144
58 1 0.415002 0.515425 0.0669942
59 1 0.413961 0.507744 0.0803931
60 1 0.415002 0.484575 0.0830728
61 1 0.416727 0.477018 0.0964716
62 1 0.425842 0.455692 0.0991514
69 1 0.413614 0.5 0.0562751
70 1 0.416727 0.477018 0.0589549
71 1 0.419122 0.469646 0.0723537
1 1 0.586039 0.507744 0.0884324
2 1 0.580878 0.530354 0.0911121
3 1 0.577832 0.537482 0.104511
5 1 0.584998 0.515425 0.0643144
6 1 0.577832 0.537482 0.0669942
7 1 0.574158 0.544308 0.0803931
104 1 0.574158 0.455692 0.107191
116 1 0.577832 0.462518 0.0830728
117 1 0.580878 0.469646 0.0964716
118 1 0.586039 0.492256 0.0991514
126 1 0.580878 0.469646 0.0589549
127 1 0.583273 0.477018 0.0723537
128 1 0.586386 0.5 0.0750335
33 1 0.45241 0.572096 0.0964716
34 1 0.434945 0.556837 0.0991514
42 1 0.45241 0.572096 0.0589549
43 1 0.446139 0.56754 0.0723537
44 1 0.430112 0.550777 0.0750335
10 1 0.533952 0.579435 0.0991514
16 1 0.526695 0.582158 0.0750335
17 1 0.519223 0.584221 0.0884324
18 1 0.496124 0.586299 0.0911121
19 1 0.488404 0.585605 0.104511
20 1 0.466048 0.579435 0.107191
29 1 0.511596 0.585605 0.0643144
30 1 0.488404 0.585605 0.0669942
31 1 0.480777 0.584221 0.0803931
32 1 0.459064 0.576072 0.0830728
41 1 0.473305 0.582158 0.0562751
4 1 0.565055 0.556837 0.107191
8 1 0.559698 0.56244 0.0830728
9 1 0.553861 0.56754 0.0964716
13 1 0.569888 0.550777 0.0562751
14 1 0.553861 0.56754 0.0589549
15 1 0.54759 0.572096 0.0723537
224 1 0.434945 0.443163 0.163466
234 1 0.440302 0.43756 0.139348
235 1 0.446139 0.43246 0.152747
245 1 0.430112 0.449223 0.11255
246 1 0.446139 0.43246 0.11523
247 1 0.45241 0.427904 0.128629
236 1 0.466048 0.420565 0.155427
248 1 0.473305 0.417842 0.131309
249 1 0.480777 0.415779 0.144707
250 1 0.503876 0.4137 0.147387
251 1 0.511596 0.414395 0.160786
252 1 0.533952 0.420565 0.163466
259 1 0.488404 0.414395 0.12059
260 1 0.511596 0.414395 0.123269
261 1 0.519223 0.415779 0.136668
262 1 0.540936 0.423928 0.139348
269 1 0.526695 0.417842 0.11255
263 1 0.54759 0.427904 0.152747
264 1 0.565055 0.443163 0.155427
270 1 0.54759 0.427904 0.11523
271 1 0.553861 0.43246 0.128629
272 1 0.569888 0.449223 0.131309
196 1 0.425842 0.544308 0.163466
206 1 0.422168 0.537482 0.139348
207 1 0.419122 0.530354 0.152747
208 1 0.413961 0.507744 0.155427
218 1 0.419122 0.530354 0.11523
219 1 0.416727 0.522982 0.128629
220 1 0.413614 0.5 0.131309
221 1 0.413961 0.492256 0.144707
222 1 0.419122 0.469646 0.147387
223 1 0.422168 0.462518 0.160786
231 1 0.415002 0.484575 0.12059
232 1 0.422168 0.462518 0.123269
233 1 0.425842 0.455692 0.136668
151 1 0.583273 0.522982 0.152747
152 1 0.574158 0.544308 0.155427
161 1 0.586386 0.5 0.11255
162 1 0.583273 0.522982 0.11523
163 1 0.580878 0.530354 0.128629
273 1 0.574158 0.455692 0.144707
274 1 0.583273 0.477018 0.147387
275 1 0.584998 0.484575 0.160786
276 1 0.586039 0.507744 0.163466
277 1 0.577832 0.462518 0.12059
278 1 0.584998 0.484575 0.123269
279 1 0.586039 0.492256 0.136668
280 1 0.584998 0.515425 0.139348
194 1 0.446139 0.56754 0.147387
195 1 0.440302 0.56244 0.160786
204 1 0.440302 0.56244 0.123269
205 1 0.434945 0.556837 0.136668
217 1 0.430112 0.550777 0.11255
167 1 0.540936 0.576072 0.160786
168 1 0.519223 0.584221 0.163466
176 1 0.540936 0.576072 0.123269
177 1 0.533952 0.579435 0.136668
178 1 0.511596 0.585605 0.139348
179 1 0.503876 0.586299 0.152747
180 1 0.480777 0.584221 0.155427
189 1 0.526695 0.582158 0.11255
190 1 0.503876 0.586299 0.11523
191 1 0.496124 0.586299 0.128629
192 1 0.473305 0.582158 0.131309
193 1 0.466048 0.579435 0.144707
203 1 0.459064 0.576072 0.12059
164 1 0.569888 0.550777 0.131309
165 1 0.565055 0.556837 0.144707
166 1 0.54759 0.572096 0.147387
175 1 0.559698 0.56244 0.12059
212 1 0.430112 0.449223 0.187584
213 1 0.434945 0.443163 0.200983
214 1 0.45241 0.427904 0.203662
225 1 0.440302 0.43756 0.176865
215 1 0.459064 0.423928 0.217061
216 1 0.480777 0.415779 0.219741
226 1 0.459064 0.423928 0.179544
227 1 0.466048 0.420565 0.192943
228 1 0.488404 0.414395 0.195623
229 1 0.496124 0.4137 0.209022
230 1 0.519223 0.415779 0.211702
237 1 0.473305 0.417842 0.168825
238 1 0.496124 0.4137 0.171505
239 1 0.503876 0.4137 0.184904
240 1 0.526695 0.417842 0.187584
241 1 0.533952 0.420565 0.200983
253 1 0.540936 0.423928 0.176865
242 1 0.553861 0.43246 0.203662
243 1 0.559698 0.43756 0.217061
254 1 0.559698 0.43756 0.179544
255 1 0.565055 0.443163 0.192943
265 1 0.569888 0.449223 0.168825
185 1 0.425842 0.544308 0.200983
186 1 0.416727 0.522982 0.203662
187 1 0.415002 0.515425 0.217061
188 1 0.413961 0.492256 0.219741
197 1 0.422168 0.537482 0.176865
198 1 0.415002 0.515425 0.179544
199 1 0.413961 0.507744 0.192943
200 1 0.415002 0.484575 0.195623
201 1 0.416727 0.477018 0.209022
202 1 0.425842 0.455692 0.211702
209 1 0.413614 0.5 0.168825
210 1 0.416727 0.477018 0.171505
211 1 0.419122 0.469646 0.184904
141 1 0.586039 0.507744 0.200983
142 1 0.580878 0.530354 0.203662
143 1 0.577832 0.537482 0.217061
145 1 0.584998 0.515425 0.176865
146 1 0.577832 0.537482 0.179544
147 1 0.574158 0.544308 0.192943
244 1 0.574158 0.455692 0.219741
256 1 0.577832 0.462518 0.195623
257 1 0.580878 0.469646 0.209022
258 1 0.586039 0.492256 0.211702
266 1 0.580878 0.469646 0.171505
267 1 0.583273 0.477018 0.184904
268 1 0.586386 0.5 0.187584
173 1 0.45241 0.572096 0.209022
174 1 0.434945 0.556837 0.211702
182 1 0.45241 0.572096 0.171505
183 1 0.446139 0.56754 0.184904
184 1 0.430112 0.550777 0.187584
150 1 0.533952 0.579435 0.211702
156 1 0.526695 0.582158 0.187584
157 1 0.519223 0.584221 0.200983
158 1 0.496124 0.586299 0.203662
159 1 0.488404 0.585605 0.217061
160 1 0.466048 0.579435 0.219741
169 1 0.511596 0.585605 0.176865
170 1 0.488404 0.585605 0.179544
171 1 0.480777 0.584221 0.192943
172 1 0.459064 0.576072 0.195623
181 1 0.473305 0.582158 0.168825
144 1 0.565055 0.556837 0.219741
148 1 0.559698 0.56244 0.195623
149 1 0.553861 0.56754 0.209022
153 1 0.569888 0.550777 0.168825
154 1 0.553861 0.56754 0.171505
155 1 0.54759 0.572096 0.184904
364 1 0.434945 0.443163 0.276016
374 1 0.440302 0.43756 0.251898
375 1 0.446139 0.43246 0.265297
385 1 0.430112 0.449223 0.225101
386 1 0.446139 0.43246 0.22778
387 1 0.45241 0.427904 0.241179
376 1 0.466048 0.420565 0.267977
388 1 0.473305 0.417842 0.243859
389 1 0.480777 0.415779 0.257258
390 1 0.503876 0.4137 0.259938
391 1 0.511596 0.414395 0.273336
392 1 0.533952 0.420565 0.276016
399 1 0.488404 0.414395 0.23314
400 1 0.511596 0.414395 0.23582
401 1 0.519223 0.415779 0.249218
402 1 0.540936 0.423928 0.251898
409 1 0.526695 0.417842 0.225101
403 1 0.54759 0.427904 0.265297
404 1 0.565055 0.443163 0.267977
410 1 0.54759 0.427904 0.22778
411 1 0.553861 0.43246 0.241179
412 1 0.569888 0.449223 0.243859
336 1 0.425842 0.544308 0.276016
346 1 0.422168 0.537482 0.251898
347 1 0.419122 0.530354 0.265297
348 1 0.413961 0.507744 0.267977
358 1 0.419122 0.530354 0.22778
359 1 0.416727 0.522982 0.241179
360 1 0.413614 0.5 0.243859
361 1 0.413961 0.492256 0.257258
362 1 0.419122 0.469646 0.259938
363 1 0.422168 0.462518 0.273336
371 1 0.415002 0.484575 0.23314
372 1 0.422168 0.462518 0.23582
373 1 0.425842 0.455692 0.249218
291 1 0.583273 0.522982 0.265297
292 1 0.574158 0.544308 0.267977
301 1 0.586386 0.5 0.225101
302 1 0.583273 0.522982 0.22778
303 1 0.580878 0.530354 0.241179
413 1 0.574158 0.455692 0.257258
414 1 0.583273 0.477018 0.259938
415 1 0.584998 0.484575 0.273336
416 1 0.586039 0.507744 0.276016
417 1 0.577832 0.462518 0.23314
418 1 0.584998 0.484575 0.23582
419 1 0.586039 0.492256 0.249218
420 1 0.584998 0.515425 0.251898
334 1 0.446139 0.56754 0.259938
335 1 0.440302 0.56244 0.273336
344 1 0.440302 0.56244 0.23582
345 1 0.434945 0.556837 0.249218
357 1 0.430112 0.550777 0.225101
307 1 0.540936 0.576072 0.273336
308 1 0.519223 0.584221 0.276016
316 1 0.540936 0.576072 0.23582
317 1 0.533952 0.579435 0.249218
318 1 0.511596 0.585605 0.251898
319 1 0.503876 0.586299 0.265297
320 1 0.480777 0.584221 0.267977
329 1 0.526695 0.582158 0.225101
330 1 0.503876 0.586299 0.22778
331 1 0.496124 0.586299 0.241179
332 1 0.473305 0.582158 0.243859
333 1 0.466048 0.579435 0.257258
343 1 0.459064 0.576072 0.23314
304 1 0.569888 0.550777 0.243859
305 1 0.565055 0.556837 0.257258
306 1 0.54759 0.572096 0.259938
315 1 0.559698 0.56244 0.23314
352 1 0.430112 0.449223 0.300134
353 1 0.434945 0.443163 0.313533
354 1 0.45241 0.427904 0.316213
365 1 0.440302 0.43756 0.289415
355 1 0.459064 0.423928 0.329611
356 1 0.480777 0.415779 0.332291
366 1 0.459064 0.423928 0.292095
367 1 0.466048 0.420565 0.305494
368 1 0.488404 0.414395 0.308173
369 1 0.496124 0.4137 0.321572
370 1 0.519223 0.415779 0.324252
377 1 0.473305 0.417842 0.281376
378 1 0.496124 0.4137 0.284055
379 1 0.503876 0.4137 0.297454
380 1 0.526695 0.417842 0.300134
381 1 0.533952 0.420565 0.313533
393 1 0.540936 0.423928 0.289415
382 1 0.553861 0.43246 0.316213
383 1 0.559698 0.43756 0.329611
394 1 0.559698 0.43756 0.292095
395 1 0.565055 0.443163 0.305494
405 1 0.569888 0.449223 0.281376
325 1 0.425842 0.544308 0.313533
326 1 0.416727 0.522982 0.316213
327 1 0.415002 0.515425 0.329611
328 1 0.413961 0.492256 0.332291
337 1 0.422168 0.537482 0.289415
338 1 0.415002 0.515425 0.292095
339 1 0.413961 0.507744 0.305494
340 1 0.415002 0.484575 0.308173
341 1 0.416727 0.477018 0.321572
342 1 0.425842 0.455692 0.324252
349 1 0.413614 0.5 0.281376
350 1 0.416727 0.477018 0.284055
351 1 0.419122 0.469646 0.297454
281 1 0.586039 0.507744 0.313533
282 1 0.580878 0.530354 0.316213
283 1 0.577832 0.537482 0.329611
285 1 0.584998 0.515425 0.289415
286 1 0.577832 0.537482 0.292095
287 1 0.574158 0.544308 0.305494
384 1 0.574158 0.455692 0.332291
396 1 0.577832 0.462518 0.308173
397 1 0.580878 0.469646 0.321572
398 1 0.586039 0.492256 0.324252
406 1 0.580878 0.469646 0.284055
407 1 0.583273 0.477018 0.297454
408 1 0.586386 0.5 0.300134
313 1 0.45241 0.572096 0.321572
314 1 0.434945 0.556837 0.324252
322 1 0.45241 0.572096 0.284055
323 1 0.446139 0.56754 0.297454
324 1 0.430112 0.550777 0.300134
290 1 0.533952 0.579435 0.324252
296 1 0.526695 0.582158 0.300134
297 1 0.519223 0.584221 0.313533
298 1 0.496124 0.586299 0.316213
299 1 0.488404 0.585605 0.329611
300 1 0.466048 0.579435 0.332291
309 1 0.511596 0.585605 0.289415
310 1 0.488404 0.585605 0.292095
311 1 0.480777 0.584221 0.305494
312 1 0.459064 0.576072 0.308173
321 1 0.473305 0.582158 0.281376
284 1 0.565055 0.556837 0.332291
288 1 0.559698 0.56244 0.308173
289 1 0.553861 0.56754 0.321572
293 1 0.569888 0.550777 0.281376
294 1 0.553861 0.56754 0.284055
295 1 0.54759 0.572096 0.297454
504 1 0.434945 0.443163 0.388566
514 1 0.440302 0.43756 0.364448
515 1 0.446139 0.43246 0.377847
525 1 0.430112 0.449223 0.337651
526 1 0.446139 0.43246 0.340331
527 1 0.45241 0.427904 0.353729
516 1 0.466048 0.420565 0.380527
528 1 0.473305 0.417842 0.356409
529 1 0.480777 0.415779 0.369808
530 1 0.503876 0.4137 0.372488
531 1 0.511596 0.414395 0.385887
532 1 0.533952 0.420565 0.388566
539 1 0.488404 0.414395 0.34569
540 1 0.511596 0.414395 0.34837
541 1 0.519223 0.415779 0.361769
542 1 0.540936 0.423928 0.364448
549 1 0.526695 0.417842 0.337651
543 1 0.54759 0.427904 0.377847
544 1 0.565055 0.443163 0.380527
550 1 0.54759 0.427904 0.340331
551 1 0.553861 0.43246 0.353729
552 1 0.569888 0.449223 0.356409
476 1 0.425842 0.544308 0.388566
486 1 0.422168 0.537482 0.364448
487 1 0.419122 0.530354 0.377847
488 1 0.413961 0.507744 0.380527
498 1 0.419122 0.530354 0.340331
499 1 0.416727 0.522982 0.353729
500 1 0.413614 0.5 0.356409
501 1 0.413961 0.492256 0.369808
502 1 0.419122 0.469646 0.372488
503 1 0.422168 0.462518 0.385887
511 1 0.415002 0.484575 0.34569
512 1 0.422168 0.462518 0.34837
513 1 0.425842 0.455692 0.361769
431 1 0.583273 0.522982 0.377847
432 1 0.574158 0.544308 0.380527
441 1 0.586386 0.5 0.337651
442 1 0.583273 0.522982 0.340331
443 1 0.580878 0.530354 0.353729
553 1 0.574158 0.455692 0.369808
554 1 0.583273 0.477018 0.372488
555 1 0.584998 0.484575 0.385887
556 1 0.586039 0.507744 0.388566
557 1 0.577832 0.462518 0.34569
558 1 0.584998 0.484575 0.34837
559 1 0.586039 0.492256 0.361769
560 1 0.584998 0.515425 0.364448
474 1 0.446139 0.56754 0.372488
475 1 0.440302 0.56244 0.385887
484 1 0.440302 0.56244 0.34837
485 1 0.434945 0.556837 0.361769
497 1 0.430112 0.550777 0.337651
447 1 0.540936 0.576072 0.385887
448 1 0.519223 0.584221 0.388566
456 1 0.540936 0.576072 0.34837
457 1 0.533952 0.579435 0.361769
458 1 0.511596 0.585605 0.364448
459 1 0.503876 0.586299 0.377847
460 1 0.480777 0.584221 0.380527
469 1 0.526695 0.582158 0.337651
470 1 0.503876 0.586299 0.340331
471 1 0.496124 0.586299 0.353729
472 1 0.473305 0.582158 0.356409
473 1 0.466048 0.579435 0.369808
483 1 0.459064 0.576072 0.34569
444 1 0.569888 0.550777 0.356409
445 1 0.565055 0.556837 0.369808
446 1 0.54759 0.572096 0.372488
455 1 0.559698 0.56244 0.34569
492 1 0.430112 0.449223 0.412684
493 1 0.434945 0.443163 0.426083
494 1 0.45241 0.427904 0.428763
505 1 0.440302 0.43756 0.401965
495 1 0.459064 0.423928 0.442162
506 1 0.459064 0.423928 0.404645
507 1 0.466048 0.420565 0.418044
508 1 0.488404 0.414395 0.420724
509 1 0.496124 0.4137 0.434122
510 1 0.519223 0.415779 0.436802
517 1 0.473305 0.417842 0.393926
518 1 0.496124 0.4137 0.396606
519 1 0.503876 0.4137 0.410005
520 1 0.526695 0.417842 0.412684
521 1 0.533952 0.420565 0.426083
533 1 0.540936 0.423928 0.401965
522 1 0.553861 0.43246 0.428763
523 1 0.559698 0.43756 0.442162
534 1 0.559698 0.43756 0.404645
535 1 0.565055 0.443163 0.418044
545 1 0.569888 0.449223 0.393926
465 1 0.425842 0.544308 0.426083
466 1 0.416727 0.522982 0.428763
467 1 0.415002 0.515425 0.442162
477 1 0.422168 0.537482 0.401965
478 1 0.415002 0.515425 0.404645
479 1 0.413961 0.507744 0.418044
480 1 0.415002 0.484575 0.420724
481 1 0.416727 0.477018 0.434122
482 1 0.425842 0.455692 0.436802
489 1 0.413614 0.5 0.393926
490 1 0.416727 0.477018 0.396606
491 1 0.419122 0.469646 0.410005
421 1 0.586039 0.507744 0.426083
422 1 0.580878 0.530354 0.428763
423 1 0.577832 0.537482 0.442162
425 1 0.584998 0.515425 0.401965
426 1 0.577832 0.537482 0.404645
427 1 0.574158 0.544308 0.418044
536 1 0.577832 0.462518 0.420724
537 1 0.580878 0.469646 0.434122
538 1 0.586039 0.492256 0.436802
546 1 0.580878 0.469646 0.396606
547 1 0.583273 0.477018 0.410005
548 1 0.586386 0.5 0.412684
453 1 0.45241 0.572096 0.434122
454 1 0.434945 0.556837 0.436802
462 1 0.45241 0.572096 0.396606
463 1 0.446139 0.56754 0.410005
464 1 0.430112 0.550777 0.412684
430 1 0.533952 0.579435 0.436802
436 1 0.526695 0.582158 0.412684
437 1 0.519223 0.584221 0.426083
438 1 0.496124 0.586299 0.428763
439 1 0.488404 0.585605 0.442162
449 1 0.511596 0.585605 0.401965
450 1 0.488404 0.585605 0.404645
451 1 0.480777 0.584221 0.418044
452 1 0.459064 0.576072 0.420724
461 1 0.473305 0.582158 0.393926
428 1 0.559698 0.56244 0.420724
429 1 0.553861 0.56754 0.434122
433 1 0.569888 0.550777 0.393926
434 1 0.553861 0.56754 0.396606
435 1 0.54759 0.572096 0.410005
654 1 0.440302 0.43756 0.476999
655 1 0.446139 0.43246 0.490398
665 1 0.430112 0.449223 0.450201
666 1 0.446139 0.43246 0.452881
667 1 0.45241 0.427904 0.46628
496 1 0.480777 0.415779 0.444842
656 1 0.466048 0.420565 0.493077
668 1 0.473305 0.417842 0.468959
669 1 0.480777 0.415779 0.482358
670 1 0.503876 0.4137 0.485038
671 1 0.511596 0.414395 0.498437
679 1 0.488404 0.414395 0.45824
680 1 0.511596 0.414395 0.46092
681 1 0.519223 0.415779 0.474319
682 1 0.540936 0.423928 0.476999
689 1 0.526695 0.417842 0.450201
683 1 0.54759 0.427904 0.490398
684 1 0.565055 0.443163 0.493077
690 1 0.54759 0.427904 0.452881
691 1 0.553861 0.43246 0.46628
692 1 0.569888 0.449223 0.468959
468 1 0.413961 0.492256 0.444842
626 1 0.422168 0.537482 0.476999
627 1 0.419122 0.530354 0.490398
628 1 0.413961 0.507744 0.493077
638 1 0.419122 0.530354 0.452881
639 1 0.416727 0.522982 0.46628
640 1 0.413614 0.5 0.468959
641 1 0.413961 0.492256 0.482358
642 1 0.419122 0.469646 0.485038
643 1 0.422168 0.462518 0.498437
651 1 0.415002 0.484575 0.45824
652 1 0.422168 0.462518 0.46092
653 1 0.425842 0.455692 0.474319
524 1 0.574158 0.455692 0.444842
571 1 0.583273 0.522982 0.490398
572 1 0.574158 0.544308 0.493077
581 1 0.586386 0.5 0.450201
582 1 0.583273 0.522982 0.452881
583 1 0.580878 0.530354 0.46628
693 1 0.574158 0.455692 0.482358
694 1 0.583273 0.477018 0.485038
695 1 0.584998 0.484575 0.498437
697 1 0.577832 0.462518 0.45824
698 1 0.584998 0.484575 0.46092
699 1 0.586039 0.492256 0.474319
700 1 0.584998 0.515425 0.476999
614 1 0.446139 0.56754 0.485038
615 1 0.440302 0.56244 0.498437
624 1 0.440302 0.56244 0.46092
625 1 0.434945 0.556837 0.474319
637 1 0.430112 0.550777 0.450201
440 1 0.466048 0.579435 0.444842
587 1 0.540936 0.576072 0.498437
596 1 0.540936 0.576072 0.46092
597 1 0.533952 0.579435 0.474319
598 1 0.511596 0.585605 0.476999
599 1 0.503876 0.586299 0.490398
600 1 0.480777 0.584221 0.493077
609 1 0.526695 0.582158 0.450201
610 1 0.503876 0.586299 0.452881
611 1 0.496124 0.586299 0.46628
612 1 0.473305 0.582158 0.468959
613 1 0.466048 0.579435 0.482358
623 1 0.459064 0.576072 0.45824
424 1 0.565055 0.556837 0.444842
584 1 0.569888 0.550777 0.468959
585 1 0.565055 0.556837 0.482358
586 1 0.54759 0.572096 0.485038
595 1 0.559698 0.56244 0.45824
632 1 0.430112 0.449223 0.525235
633 1 0.434945 0.443163 0.538633
634 1 0.45241 0.427904 0.541313
644 1 0.434945 0.443163 0.501117
645 1 0.440302 0.43756 0.514516
635 1 0.459064 0.423928 0.554712
646 1 0.459064 0.423928 0.517195
647 1 0.466048 0.420565 0.530594
648 1 0.488404 0.414395 0.533274
649 1 0.496124 0.4137 0.546673
650 1 0.519223 0.415779 0.549352
657 1 0.473305 0.417842 0.506476
658 1 0.496124 0.4137 0.509156
659 1 0.503876 0.4137 0.522555
660 1 0.526695 0.417842 0.525235
661 1 0.533952 0.420565 0.538633
672 1 0.533952 0.420565 0.501117
673 1 0.540936 0.423928 0.514516
662 1 0.553861 0.43246 0.541313
663 1 0.559698 0.43756 0.554712
674 1 0.559698 0.43756 0.517195
675 1 0.565055 0.443163 0.530594
685 1 0.569888 0.449223 0.506476
605 1 0.425842 0.544308 0.538633
606 1 0.416727 0.522982 0.541313
607 1 0.415002 0.515425 0.554712
616 1 0.425842 0.544308 0.501117
617 1 0.422168 0.537482 0.514516
618 1 0.415002 0.515425 0.517195
619 1 0.413961 0.507744 0.530594
620 1 0.415002 0.484575 0.533274
621 1 0.416727 0.477018 0.546673
622 1 0.425842 0.455692 0.549352
629 1 0.413614 0.5 0.506476
630 1 0.416727 0.477018 0.509156
631 1 0.419122 0.469646 0.522555
561 1 0.586039 0.507744 0.538633
562 1 0.580878 0.530354 0.541313
563 1 0.577832 0.537482 0.554712
565 1 0.584998 0.515425 0.514516
566 1 0.577832 0.537482 0.517195
567 1 0.574158 0.544308 0.530594
676 1 0.577832 0.462518 0.533274
677 1 0.580878 0.469646 0.546673
678 1 0.586039 0.492256 0.549352
686 1 0.580878 0.469646 0.509156
687 1 0.583273 0.477018 0.522555
688 1 0.586386 0.5 0.525235
696 1 0.586039 0.507744 0.501117
593 1 0.45241 0.572096 0.546673
594 1 0.434945 0.556837 0.549352
602 1 0.45241 0.572096 0.509156
603 1 0.446139 0.56754 0.522555
604 1 0.430112 0.550777 0.525235
570 1 0.533952 0.579435 0.549352
576 1 0.526695 0.582158 0.525235
577 1 0.519223 0.584221 0.538633
578 1 0.496124 0.586299 0.541313
579 1 0.488404 0.585605 0.554712
588 1 0.519223 0.584221 0.501117
589 1 0.511596 0.585605 0.514516
590 1 0.488404 0.585605 0.517195
591 1 0.480777 0.584221 0.530594
592 1 0.459064 0.576072 0.533274
601 1 0.473305 0.582158 0.506476
568 1 0.559698 0.56244 0.533274
569 1 0.553861 0.56754 0.546673
573 1 0.569888 0.550777 0.506476
574 1 0.553861 0.56754 0.509156
575 1 0.54759 0.572096 0.522555
636 1 0.480777 0.415779 0.557392
608 1 0.413961 0.492256 0.557392
664 1 0.574158 0.455692 0.557392
580 1 0.466048 0.579435 0.557392
564 1 0.565055 0.556837 0.557392
ITEM: TIMESTEP
5000
ITEM: NUMBER OF ATOMS
700
ITEM: BOX BOUNDS pp pp pp
-3.0000000000000000e+01 3.0000000000000000e+01
-3.0000000000000000e+01 3.0000000000000000e+01
0.0000000000000000e+00 1.0000000000000000e+02
ITEM: ATOMS id type xs ys zs
84 1 0.436333 0.444474 0.0504087
94 1 0.440282 0.43983 0.026402
95 1 0.447892 0.434628 0.0394965
105 1 0.431324 0.454281 0
106 1 0.451411 0.442854 0.00267977
107 1 0.455384 0.434141 0.0160126
96 1 0.468044 0.423765 0.0421174
108 1 0.475607 0.42403 0.018554
109 1 0.48354 0.423234 0.0314366
110 1 0.505982 0.419836 0.0344506
111 1 0.511756 0.418511 0.0483742
112 1 0.534328 0.424423 0.0512137
119 1 0.490661 0.415883 0.00900311
120 1 0.513358 0.415636 0.0106323
121 1 0.521799 0.418087 0.0240903
122 1 0.543648 0.425834 0.0265914
129 1 0.52951 0.415061 0
123 1 0.549923 0.428567 0.0400221
124 1 0.567644 0.443633 0.0433645
130 1 0.549644 0.426062 0.00267977
131 1 0.557249 0.431703 0.0158348
132 1 0.574867 0.446208 0.018845
56 1 0.424689 0.545394 0.0508128
66 1 0.419445 0.53867 0.0265956
67 1 0.416903 0.531889 0.04006
68 1 0.412858 0.509076 0.0426759
78 1 0.413889 0.533277 0.00267977
79 1 0.413767 0.524132 0.0165254
80 1 0.409575 0.501004 0.0188678
81 1 0.410952 0.493746 0.0324715
82 1 0.418002 0.47154 0.0347954
83 1 0.422741 0.463631 0.0481105
91 1 0.407553 0.483761 0.00957542
92 1 0.420058 0.465053 0.0105177
93 1 0.422951 0.456845 0.0244548
11 1 0.581882 0.518876 0.0401399
12 1 0.569644 0.538593 0.0432521
21 1 0.591156 0.499098 0
22 1 0.583943 0.520793 0.00267977
23 1 0.579165 0.527097 0.0158072
133 1 0.577696 0.454129 0.0321107
134 1 0.587733 0.475238 0.0346303
135 1 0.58998 0.482192 0.0482071
136 1 0.588105 0.505481 0.0508284
137 1 0.585153 0.459741 0.00881202
138 1 0.589 0.482819 0.0102634
139 1 0.589117 0.490336 0.0237542
140 1 0.584655 0.513126 0.026574
54 1 0.446291 0.56572 0.0346127
55 1 0.439671 0.562208 0.0482904
64 1 0.438457 0.563292 0.0102841
65 1 0.432692 0.557392 0.0240186
77 1 0.425853 0.552545 0
27 1 0.538571 0.570027 0.0478217
28 1 0.517925 0.581061 0.050384
36 1 0.540989 0.572787 0.0104738
37 1 0.533101 0.575711 0.0236922
38 1 0.511453 0.583876 0.0261135
39 1 0.503992 0.585688 0.0394956
40 1 0.480012 0.58341 0.0421294
49 1 0.525647 0.574666 0
50 1 0.505308 0.583177 0.00267977
51 1 0.496303 0.583185 0.015663
52 1 0.472996 0.580956 0.0182333
53 1 0.465803 0.57762 0.031583
63 1 0.45569 0.579434 0.00837532
24 1 0.569992 0.547821 0.0182488
25 1 0.56076 0.549699 0.0320421
26 1 0.544567 0.566087 0.0343586
35 1 0.56327 0.564228 0.00892735
72 1 0.43191 0.450532 0.0751559
73 1 0.434803 0.444014 0.088507
74 1 0.451117 0.426774 0.0909955
85 1 0.441337 0.438907 0.0638633
75 1 0.458877 0.423925 0.104659
76 1 0.480673 0.416652 0.107081
86 1 0.460025 0.424237 0.0663945
87 1 0.465587 0.420422 0.0803147
88 1 0.487663 0.416301 0.0830164
89 1 0.495465 0.415415 0.0961197
90 1 0.518134 0.419378 0.0992607
97 1 0.474193 0.418951 0.0555471
98 1 0.49682 0.415094 0.0585969
99 1 0.504117 0.416427 0.0723555
100 1 0.526697 0.423146 0.0752108
101 1 0.532994 0.424052 0.088686
113 1 0.541559 0.425859 0.0646567
102 1 0.552768 0.435791 0.0912814
103 1 0.55767 0.441385 0.104416
114 1 0.561813 0.437443 0.0676124
115 1 0.566311 0.443317 0.0808957
125 1 0.573248 0.447677 0.0569351
45 1 0.424349 0.544827 0.0879472
46 1 0.415313 0.523893 0.0903162
47 1 0.413242 0.516447 0.104353
48 1 0.414126 0.493117 0.106835
57 1 0.422797 0.537235 0.0638427
58 1 0.4153 0.51566 0.0664048
59 1 0.412677 0.509097 0.0799253
60 1 0.416012 0.485688 0.0828608
61 1 0.417661 0.477792 0.0960749
62 1 0.426738 0.456613 0.0993263
69 1 0.414049 0.500135 0.0560213
70 1 0.418189 0.47782 0.0590909
71 1 0.420349 0.470827 0.0721789
1 1 0.590383 0.507637 0.0889225
2 1 0.579074 0.528297 0.0907686
3 1 0.57753 0.535776 0.104169
5 1 0.588458 0.51337 0.0643454
6 1 0.577093 0.533779 0.0670962
7 1 0.572822 0.541405 0.0803626
104 1 0.573511 0.457263 0.107278
116 1 0.581108 0.461253 0.0834574
117 1 0.58289 0.469686 0.0969076
118 1 0.589147 0.492542 0.0996668
126 1 0.586431 0.46723 0.0592828
127 1 0.587784 0.475681 0.0728103
128 1 0.592305 0.498352 0.0753538
33 1 0.452325 0.570681 0.095929
34 1 0.434873 0.556221 0.0986262
42 1 0.451477 0.57145 0.0586717
43 1 0.445783 0.5671 0.0718822
44 1 0.430656 0.550266 0.0749449
10 1 0.532945 0.577753 0.0987841
16 1 0.525559 0.579223 0.0742811
17 1 0.518484 0.580679 0.0877996
18 1 0.495769 0.586529 0.090276
19 1 0.487913 0.585033 0.103722
20 1 0.465692 0.577371 0.106353
29 1 0.511068 0.584043 0.0640691
30 1 0.487407 0.584838 0.0666761
31 1 0.479905 0.585121 0.0800336
32 1 0.459208 0.574894 0.082679
41 1 0.472456 0.581371 0.0562217
4 1 0.564474 0.555353 0.106753
8 1 0.55675 0.558149 0.0828463
9 1 0.551638 0.564485 0.0961802
13 1 0.566572 0.544796 0.0564107
14 1 0.549459 0.560451 0.0588539
15 1 0.544102 0.565797 0.0716517
224 1 0.438038 0.446437 0.163021
234 1 0.441287 0.4372 0.139447
235 1 0.447675 0.434284 0.152691
245 1 0.430061 0.448641 0.112491
246 1 0.445036 0.432074 0.115154
247 1 0.452359 0.427247 0.128734
236 1 0.467356 0.42189 0.155504
248 1 0.472486 0.415563 0.131229
249 1 0.480837 0.41486 0.14455
250 1 0.503747 0.414034 0.147516
251 1 0.512212 0.416295 0.161004
252 1 0.534003 0.423044 0.16371
259 1 0.488507 0.415476 0.120576
260 1 0.51109 0.416578 0.123523
261 1 0.519502 0.417264 0.13714
262 1 0.541607 0.425004 0.139395
269 1 0.525492 0.421683 0.11282
263 1 0.547952 0.429219 0.152903
264 1 0.565783 0.443507 0.155548
270 1 0.547116 0.430256 0.115407
271 1 0.554313 0.434296 0.128928
272 1 0.570319 0.44969 0.13137
196 1 0.429089 0.541866 0.163542
206 1 0.421384 0.538321 0.139235
207 1 0.420018 0.529869 0.152586
208 1 0.41397 0.50836 0.154971
218 1 0.416739 0.532039 0.11512
219 1 0.415766 0.524093 0.128319
220 1 0.415311 0.501571 0.130897
221 1 0.414392 0.492575 0.144022
222 1 0.420083 0.470661 0.146946
223 1 0.422213 0.462923 0.160172
231 1 0.417251 0.486326 0.120162
232 1 0.424886 0.464424 0.122984
233 1 0.428492 0.457318 0.136325
151 1 0.583711 0.523528 0.152766
152 1 0.573902 0.544587 0.155641
161 1 0.589031 0.500324 0.11318
162 1 0.583171 0.522201 0.115536
163 1 0.581692 0.531436 0.128901
273 1 0.573932 0.457036 0.144641
274 1 0.583993 0.477892 0.147443
275 1 0.585206 0.485279 0.16089
276 1 0.584744 0.507832 0.163799
277 1 0.57829 0.463162 0.120812
278 1 0.587887 0.48465 0.123571
279 1 0.586926 0.492978 0.136732
280 1 0.58623 0.515779 0.139553
194 1 0.448538 0.564487 0.147168
195 1 0.443028 0.559763 0.160609
204 1 0.440825 0.560557 0.123081
205 1 0.434969 0.556725 0.136605
217 1 0.429473 0.550146 0.112324
167 1 0.542605 0.577546 0.16069
168 1 0.520341 0.58487 0.163179
176 1 0.541032 0.574713 0.123196
177 1 0.534764 0.577871 0.136414
178 1 0.512283 0.58486 0.138863
179 1 0.505983 0.584781 0.152509
180 1 0.483817 0.57991 0.154721
189 1 0.526174 0.579881 0.112389
190 1 0.503751 0.58486 0.114808
191 1 0.496187 0.584902 0.128394
192 1 0.474458 0.577248 0.130955
193 1 0.46887 0.575428 0.144336
203 1 0.460771 0.572081 0.11999
164 1 0.57044 0.551026 0.131425