LAMMPS (29 Sep 2021 - Update 2)
OMP_NUM_THREADS environment is not set. Defaulting to 1 thread. (src/comm.cpp:98)
  using 1 OpenMP thread(s) per MPI task
# LAMMPS input script
# author : Simon Gravelle
# lammpstutorials.github.io

# Initialisation

variable T equal 300

units metal
atom_style full
boundary p p p
pair_style airebo 2.5 1 1

# System definition
read_data cnt.data
Reading data file ...
  orthogonal box = (-30.000000 -30.000000 0.0000000) to (30.000000 30.000000 100.00000)
  1 by 1 by 2 MPI processor grid
  reading atoms ...
  700 atoms
Finding 1-2 1-3 1-4 neighbors ...
  special bond factors lj:    0        0        0       
  special bond factors coul:  0        0        0       
     0 = max # of 1-2 neighbors
     0 = max # of 1-3 neighbors
     0 = max # of 1-4 neighbors
     1 = max # of special neighbors
  special bonds CPU = 0.000 seconds
  read_data CPU = 0.002 seconds
pair_coeff * * CH.airebo C
Reading airebo potential file CH.airebo with DATE: 2011-10-25

# Simulation settings
group gcar type 1
700 atoms in group gcar
variable zmax equal bound(gcar,zmax)-0.5
variable zmin equal bound(gcar,zmin)+0.5
region rtop block INF INF INF INF ${zmax} INF
region rtop block INF INF INF INF 55.239178 INF
region rbot block INF INF INF INF INF ${zmin}
region rbot block INF INF INF INF INF 0.5
region rmid block INF INF INF INF ${zmin} ${zmax}
region rmid block INF INF INF INF 0.5 ${zmax}
region rmid block INF INF INF INF 0.5 55.239178

group gtop region rtop
10 atoms in group gtop
group gbot region rbot
10 atoms in group gbot
group gmid region rmid
680 atoms in group gmid

velocity gmid create ${T} 48455 mom yes rot yes
velocity gmid create 300 48455 mom yes rot yes
fix mynve all nve
compute Tmid gmid temp
fix myber gmid temp/berendsen ${T} ${T} 0.1
fix myber gmid temp/berendsen 300 ${T} 0.1
fix myber gmid temp/berendsen 300 300 0.1
fix_modify myber temp Tmid

fix mysf1 gbot setforce NULL NULL 0
fix mysf2 gtop setforce NULL NULL 0
velocity gbot set NULL NULL 0
velocity gtop set NULL NULL 0

variable pos equal xcm(gtop,z)
fix at1 all ave/time 10 100 1000 v_pos file cnt_deflection.dat
fix at2 all ave/time 10 100 1000 f_mysf1[1] f_mysf2[1] file force.dat
dump mydmp all atom 5000 dump.lammpstrj

fix myrct all recenter INIT INIT NULL

thermo 100
thermo_modify temp Tmid
WARNING: Temperature for thermo pressure is not for group all (src/thermo.cpp:482)

# Run
timestep 0.0005
run 5000
Neighbor list info ...
  update every 1 steps, delay 10 steps, check yes
  max neighbors/atom: 2000, page size: 100000
  master list distance cutoff = 10.5
  ghost atom cutoff = 10.5
  binsize = 5.25, bins = 12 12 20
  1 neighbor lists, perpetual/occasional/extra = 1 0 0
  (1) pair airebo, perpetual
      attributes: full, newton on, ghost
      pair build: full/bin/ghost
      stencil: full/ghost/bin/3d
      bin: standard
Per MPI rank memory allocation (min/avg/max) = 7.868 | 8.061 | 8.254 Mbytes
Step Temp E_pair E_mol TotEng Press 
       0          300   -5084.7276            0   -5058.3973   -1515.7017 
     100    237.49462   -5075.4114            0   -5054.5671   -155.05545 
     200    238.86589   -5071.9168            0   -5050.9521   -498.15029 
     300    220.04074   -5067.1113            0   -5047.7989   -1514.8516 
     400    269.23434   -5069.6565            0   -5046.0264   -174.31158 
     500    274.92241   -5068.5989            0   -5044.4696   -381.28758 
     600    261.91841    -5065.985            0   -5042.9971   -1507.5577 
     700    288.47709   -5067.7301            0   -5042.4111   -312.16669 
     800    289.85177   -5066.5482            0   -5041.1086   -259.84893 
     900    279.34891   -5065.0216            0   -5040.5038   -1390.8508 
    1000    312.27343   -5067.6245            0    -5040.217   -465.74352 
    1100    296.79838   -5065.7738            0   -5039.7245   -214.26005 
    1200    270.95687   -5063.2575            0   -5039.4762   -1307.9934 
    1300    305.62464    -5066.381            0    -5039.557   -613.87963 
    1400     296.6987   -5065.1095            0   -5039.0689   -177.48003 
    1500    293.02365   -5064.7377            0   -5039.0197   -1149.4413 
    1600     314.0368   -5066.5034            0   -5038.9412   -757.72518 
    1700    288.14036   -5064.2085            0   -5038.9191   -301.80913 
    1800    301.59831   -5064.8676            0    -5038.397   -929.12184 
    1900    314.42411   -5066.1097            0   -5038.5135   -862.51837 
    2000    284.53456   -5063.9218            0   -5038.9489    -346.7093 
    2100    297.43583    -5064.557            0   -5038.4517   -812.58276 
    2200    291.11601   -5064.0011            0   -5038.4505   -930.87663 
    2300    283.85908   -5063.7144            0   -5038.8007   -493.89935 
    2400    307.56581   -5065.3507            0   -5038.3564   -600.27581 
    2500    299.55552   -5064.6856            0   -5038.3943    -940.5822 
    2600     296.0557   -5064.7583            0   -5038.7742   -659.13823 
    2700    290.20836   -5063.8619            0    -5038.391   -562.40312 
    2800     302.9251   -5064.8122            0   -5038.2252   -847.50405 
    2900    296.72482   -5064.4958            0    -5038.453   -818.37871 
    3000    293.96588    -5064.554            0   -5038.7533   -458.67518 
    3100    297.10779   -5064.5463            0   -5038.4699   -809.36811 
    3200    300.74007   -5064.9214            0   -5038.5261    -871.8059 
    3300    299.40154   -5064.7577            0   -5038.4799   -500.06162 
    3400     301.0983   -5064.7416            0   -5038.3149   -769.54147 
    3500    306.46051   -5065.1931            0   -5038.2958   -894.33383 
    3600    297.19201   -5064.6353            0   -5038.5515   -515.21286 
    3700    306.33462   -5065.1015            0   -5038.2153   -659.77037 
    3800    324.28749    -5066.638            0   -5038.1761   -868.43898 
    3900    306.35666    -5065.473            0   -5038.5848   -614.15169 
    4000    286.11603   -5063.5114            0   -5038.3997   -587.98539 
    4100    300.25618   -5064.6836            0   -5038.3309   -857.11717 
    4200    306.17205   -5065.1893            0   -5038.3173   -754.12957 
    4300    289.37711    -5063.619            0    -5038.221   -476.56254 
    4400    293.35194   -5064.2286            0   -5038.4818   -785.67337 
    4500    301.94229   -5065.2195            0   -5038.7188    -874.9217 
    4600    298.86715   -5064.8236            0   -5038.5927   -465.75249 
    4700    298.53762   -5065.0381            0   -5038.8362   -778.31269 
    4800    294.30847   -5064.2514            0   -5038.4207   -936.19214 
    4900    296.12281   -5064.5492            0   -5038.5592   -420.78715 
    5000    298.14327   -5064.4519            0   -5038.2846   -823.76253 
Loop time of 13.1201 on 2 procs for 5000 steps with 700 atoms

Performance: 16.463 ns/day, 1.458 hours/ns, 381.094 timesteps/s
100.0% CPU use with 2 MPI tasks x 1 OpenMP threads

MPI task timing breakdown:
Section |  min time  |  avg time  |  max time  |%varavg| %total
---------------------------------------------------------------
Pair    | 1.1706     | 7.1087     | 13.047     | 222.7 | 54.18
Bond    | 0.00022952 | 0.00030709 | 0.00038467 |   0.0 |  0.00
Neigh   | 0          | 0          | 0          |   0.0 |  0.00
Comm    | 0.023021   | 5.9613     | 11.9       | 243.2 | 45.44
Output  | 0.00095185 | 0.0010846  | 0.0012174  |   0.4 |  0.01
Modify  | 0.040784   | 0.041652   | 0.04252    |   0.4 |  0.32
Other   |            | 0.007027   |            |       |  0.05

Nlocal:        350.000 ave         625 max          75 min
Histogram: 1 0 0 0 0 0 0 0 0 1
Nghost:        170.000 ave         265 max          75 min
Histogram: 1 0 0 0 0 0 0 0 0 1
Neighs:         0.00000 ave           0 max           0 min
Histogram: 2 0 0 0 0 0 0 0 0 0
FullNghs:      54915.0 ave      100935 max        8895 min
Histogram: 1 0 0 0 0 0 0 0 0 1

Total # of neighbors = 109830
Ave neighs/atom = 156.90000
Ave special neighs/atom = 0.0000000
Neighbor list builds = 0
Dangerous builds = 0

# 0.025 A/ps = 5 m/s
velocity gtop set NULL NULL 0.15
# 0.05 A/ps = 10 m/s
#velocity gtop set NULL NULL 0.05
run 280000
Per MPI rank memory allocation (min/avg/max) = 7.868 | 8.061 | 8.254 Mbytes
Step Temp E_pair E_mol TotEng Press 
    5000    298.14327   -5064.4519            0   -5038.2846   -823.76253 
    5100    298.88555   -5064.2955            0   -5038.0631   -929.10939 
    5200    312.98439   -5065.6459            0    -5038.176   -458.80503 
    5300    301.57719   -5064.5262            0   -5038.0574   -818.23556 
    5400    303.51468   -5064.6639            0   -5038.0251     -926.424 
    5500    300.35216   -5064.4373            0   -5038.0761   -491.99649 
    5600    303.08853   -5064.9022            0   -5038.3009   -798.25622 
    5700    298.12338   -5064.0091            0   -5037.8435   -951.57306 
    5800    309.37853   -5065.0057            0   -5037.8523   -535.33468 
    5900    306.24916   -5064.8119            0   -5037.9331   -715.24426 
    6000    292.51363   -5063.3932            0   -5037.7199   -967.94767 
    6100    310.49715   -5064.9403            0   -5037.6887   -577.84437 
    6200    290.76692   -5063.1651            0   -5037.6452   -774.48531 
    6300    288.25583   -5062.7218            0   -5037.4223   -1041.5781 
    6400    296.49825   -5063.4383            0   -5037.4154   -645.73701 
    6500    288.26339   -5062.6723            0   -5037.3721   -704.72163 
    6600    284.97827   -5062.2228            0    -5037.211   -1023.8159 
    6700    314.44364   -5064.6818            0   -5037.0838    -673.7402 
    6800     293.4107   -5062.9517            0   -5037.1997   -789.17272 
    6900    289.73147   -5062.8213            0   -5037.3922   -1084.9832 
    7000    293.59882    -5063.112            0   -5037.3435   -720.45242 
    7100    292.03378   -5062.3881            0    -5036.757   -699.97036 
    7200    298.74472   -5063.0961            0   -5036.8759   -1068.2767 
    7300    309.64488   -5063.8362            0   -5036.6594    -797.0564 
    7400    297.68193   -5062.9312            0   -5036.8043    -723.2599 
    7500    310.65253   -5064.0613            0   -5036.7961   -1093.7913 
    7600    310.37737   -5063.8021            0    -5036.561   -867.36705 
    7700    300.10493   -5063.0081            0   -5036.6686   -690.66477 
    7800     301.7824   -5063.1881            0   -5036.7013   -1012.2872 
    7900    313.33143   -5064.0186            0   -5036.5183   -946.04157 
    8000    309.91082   -5063.4497            0   -5036.2495   -742.20181 
    8100    311.17599   -5063.6113            0   -5036.3001   -1040.4096 
    8200     288.6922   -5061.2653            0   -5035.9275   -1022.7874 
    8300    297.27971   -5062.1306            0   -5036.0391   -725.29799 
    8400    301.24368   -5062.1555            0   -5035.7161   -988.38108 
    8500    300.81364   -5062.1781            0   -5035.7763   -1045.1377 
    8600    298.31519   -5061.9464            0    -5035.764    -728.8138 
    8700    296.63836   -5061.6025            0   -5035.5673   -999.95586 
    8800    302.15892   -5062.2427            0   -5035.7229   -1101.9834 
    8900    290.57165   -5061.0794            0   -5035.5766   -738.94499 
    9000    298.24285    -5061.785            0   -5035.6089   -969.69792 
    9100    296.60671   -5061.3896            0   -5035.3571     -1105.17 
    9200     298.3406   -5061.4959            0   -5035.3112   -817.10333 
    9300    310.74532   -5062.2058            0   -5034.9324   -1007.8945 
    9400    295.81078   -5061.0047            0   -5035.0421   -1166.2228 
    9500    305.08836    -5061.604            0   -5034.8271   -845.78286 
    9600     295.3118   -5060.8388            0     -5034.92   -957.61706 
    9700    287.21379   -5059.8178            0   -5034.6097   -1229.1342 
    9800    293.63629   -5060.5325            0   -5034.7608   -901.61683 
    9900    295.29206   -5060.3825            0   -5034.4654   -972.69731 
   10000    292.44856   -5060.0749            0   -5034.4073   -1251.2112 
   10100    305.79876   -5061.3164            0   -5034.4771   -901.24448 
   10200    294.16427   -5060.2308            0   -5034.4127   -962.49129 
   10300    294.47723   -5060.4422            0   -5034.5967   -1237.3969 
   10400     302.6901   -5060.4508            0   -5033.8844   -965.09562 
   10500    305.95285   -5060.9548            0   -5034.1021   -881.61423 
   10600    286.35718    -5058.999            0   -5033.8661   -1284.8685 
   10700    306.38052   -5060.9126            0   -5034.0223   -996.88428 
   10800    305.59759     -5060.73            0   -5033.9084   -924.53752 
   10900     286.4025   -5058.5286            0   -5033.3918   -1253.7724 
   11000    297.37133   -5059.7112            0   -5033.6116   -1039.0235 
   11100     305.3456   -5060.1123            0   -5033.3128   -972.31317 
   11200    306.48017   -5060.3063            0   -5033.4073   -1275.4355 
   11300    303.06828    -5059.627            0   -5033.0274   -1076.5823 
   11400    294.96466   -5059.0573            0    -5033.169   -969.01793 
   11500     300.4149   -5059.2131            0   -5032.8464   -1304.3292 
   11600     296.1929   -5058.5308            0   -5032.5347   -1130.5625 
   11700     297.8922   -5058.6517            0   -5032.5064   -970.20673 
   11800    307.22781   -5059.6912            0   -5032.7265   -1345.0764 
   11900     300.9391   -5059.1144            0   -5032.7017   -1165.0521 
   12000    287.93602   -5057.8973            0   -5032.6258   -925.86979 
   12100    310.31712   -5059.7529            0   -5032.5171   -1293.7586 
   12200    301.38164   -5058.8223            0   -5032.3707    -1259.651 
   12300    284.91348   -5056.9904            0   -5031.9842   -926.80035 
   12400     300.1587   -5058.2836            0   -5031.9394   -1230.5128 
   12500    294.07307   -5057.8228            0   -5032.0127   -1316.3987 
   12600    296.06304   -5057.7966            0   -5031.8118   -994.18076 
   12700    291.02787   -5057.3077            0   -5031.7648    -1246.276 
   12800    295.11845   -5057.2707            0   -5031.3688   -1324.6111 
   12900    296.12313    -5057.751            0    -5031.761   -1014.1219 
   13000    300.47138   -5058.1911            0   -5031.8194   -1252.1579 
   13100     307.4847   -5058.3099            0   -5031.3227   -1433.4097 
   13200    302.97468   -5057.8138            0   -5031.2225   -1057.0314 
   13300     304.4681   -5057.9345            0   -5031.2121   -1222.6422 
   13400    315.21764    -5058.643            0   -5030.9771   -1412.8589 
   13500    298.57886   -5057.0576            0    -5030.852   -1106.0334 
   13600    289.92514   -5056.2681            0   -5030.8221   -1246.2337 
   13700    294.50147    -5056.345            0   -5030.4973   -1454.7351 
   13800    303.59498   -5057.0822            0   -5030.4364   -1090.4563 
   13900    312.56303   -5057.8711            0   -5030.4382   -1156.5023 
   14000    295.30345   -5056.1598            0   -5030.2418   -1466.1946 
   14100     294.6624   -5055.9957            0   -5030.1339   -1196.8272 
   14200    307.85302   -5057.0117            0   -5029.9922   -1135.7279 
   14300    298.13917   -5056.0582            0   -5029.8912   -1511.2966 
   14400    295.87585   -5055.9359            0   -5029.9676   -1192.2796 
   14500    314.76643   -5057.2664            0   -5029.6401   -1187.8289 
   14600    305.87831   -5056.3897            0   -5029.5435   -1521.1266 
   14700    303.45118   -5055.8218            0   -5029.1886   -1279.7334 
   14800    309.40632   -5056.2545            0   -5029.0987   -1164.4117 
   14900    303.84861    -5055.723            0   -5029.0549   -1526.1599 
   15000    306.15949   -5055.7596            0   -5028.8887   -1318.9902 
   15100    295.18442   -5054.7622            0   -5028.8546   -1195.0718 
   15200    295.63969   -5054.8133            0   -5028.8657     -1514.11 
   15300    312.20516   -5056.2588            0   -5028.8573   -1370.1059 
   15400    295.15751    -5054.645            0   -5028.7398    -1151.763 
   15500    290.21615   -5053.8923            0   -5028.4207   -1489.1583 
   15600    288.06128   -5053.6142            0   -5028.3318   -1407.6367 
   15700    297.65198   -5054.8025            0   -5028.6783   -1223.8383 
   15800    296.27219   -5054.2543            0   -5028.2511   -1505.3885 
   15900     302.9281   -5054.8085            0   -5028.2213   -1392.7596 
   16000    292.77536   -5053.6319            0   -5027.9357   -1253.2252 
   16100    297.72022   -5053.9438            0   -5027.8136   -1494.0903 
   16200    293.38373   -5053.3635            0   -5027.6139   -1476.7756 
   16300    293.84564   -5053.2874            0   -5027.4972   -1302.6206 
   16400    288.44804   -5052.6689            0   -5027.3525   -1453.7624 
   16500    299.32572    -5053.235            0   -5026.9639   -1502.7995 
   16600    297.14244   -5052.9141            0   -5026.8346   -1317.2638 
   16700    294.89213   -5052.7598            0   -5026.8778   -1495.1293 
   16800    301.01905   -5053.1706            0   -5026.7509   -1563.1021 
   16900    300.53687   -5053.0946            0   -5026.7172   -1332.8837 
   17000    294.30875   -5052.7517            0   -5026.9209   -1441.5709 
   17100    299.37463   -5052.8686            0   -5026.5932   -1568.1677 
   17200    289.22743   -5051.9693            0   -5026.5845   -1373.9632 
   17300    296.99979   -5052.4343            0   -5026.3673   -1422.1504 
   17400    309.44498    -5053.108            0   -5025.9487   -1570.2296 
   17500    303.28615   -5052.4931            0   -5025.8744   -1427.5711 
   17600    299.69505   -5052.0222            0   -5025.7187   -1413.4149 
   17700    308.10249   -5052.6903            0   -5025.6488   -1646.9601 
   17800    300.99701   -5051.8567            0   -5025.4389   -1444.1564 
   17900    295.26071   -5051.4932            0   -5025.5789   -1420.4641 
   18000    308.43198   -5052.4229            0   -5025.3526   -1678.3403 
   18100    314.47126   -5052.6506            0   -5025.0502   -1547.4987 
   18200     305.7499    -5051.737            0    -5024.902   -1436.6005 
   18300    307.61897   -5051.9358            0   -5024.9368   -1649.8156 
   18400    299.27637   -5050.8973            0   -5024.6305   -1524.7195 
   18500    294.33089   -5050.3142            0   -5024.4815   -1441.2493 
   18600    300.35701   -5050.6911            0   -5024.3295   -1642.1817 
   18700    301.13594   -5050.5833            0   -5024.1534   -1528.2114 
   18800    289.12037   -5049.5163            0   -5024.1408   -1437.7106 
   18900    296.36179   -5050.0421            0   -5024.0311    -1639.584 
   19000    300.66342   -5050.4713            0   -5024.0828   -1592.1453 
   19100    295.87509    -5049.833            0   -5023.8648   -1520.0169 
   19200    293.94367   -5049.5661            0   -5023.7674   -1607.9527 
   19300    305.45453   -5050.4201            0   -5023.6111   -1612.0544 
   19400    299.76962   -5049.6945            0   -5023.3844   -1555.8449 
   19500    290.54507   -5048.5952            0   -5023.0947   -1678.4025 
   19600    305.68426   -5049.8288            0   -5022.9996   -1664.8017 
   19700    307.39951   -5049.5257            0    -5022.546   -1540.0687 
   19800    296.40409    -5048.652            0   -5022.6373   -1617.4704 
   19900    304.67418   -5049.3837            0   -5022.6431   -1696.5695 
   20000    297.42759   -5048.6705            0    -5022.566    -1613.782 
   20100    294.85295   -5048.3152            0   -5022.4367   -1617.9602 
   20200    303.83072   -5049.0744            0   -5022.4079   -1686.8151 
   20300     297.7136   -5048.2527            0    -5022.123   -1592.9615 
   20400    297.27476   -5048.0906            0   -5021.9995   -1637.1316 
   20500    299.84102   -5047.9516            0   -5021.6353   -1719.5169 
   20600    295.87183   -5047.3347            0   -5021.3667   -1638.5457 
   20700    303.50905   -5047.7857            0   -5021.1474   -1628.0485 
   20800      303.944   -5047.8571            0   -5021.1806   -1726.5072 
   20900    302.86893   -5047.8053            0   -5021.2232   -1688.2604 
   21000    309.51496   -5048.3491            0   -5021.1837   -1679.6349 
   21100    297.91805   -5046.9392            0   -5020.7916    -1744.651 
   21200    308.35364    -5047.636            0   -5020.5725   -1718.1067 
   21300    298.52236   -5046.7437            0   -5020.5431   -1708.5091 
   21400    294.52889    -5046.065            0   -5020.2149   -1768.6606 
   21500    306.67103   -5046.9148            0    -5019.999   -1748.3985 
   21600    304.50393   -5046.6004            0   -5019.8748   -1691.6434 
   21700    295.18925    -5045.858            0   -5019.9499   -1731.1823 
   21800    306.17957   -5046.3841            0   -5019.5115   -1767.1124 
   21900    299.91647   -5046.0531            0   -5019.7301   -1727.7354 
   22000    297.78217   -5045.5886            0   -5019.4529   -1752.5676 
   22100    294.52855   -5045.0993            0   -5019.2492   -1726.3918 
   22200    296.42391   -5045.1233            0   -5019.1069   -1724.3008 
   22300    306.63628   -5045.8204            0   -5018.9076   -1783.9051 
   22400    303.52686    -5045.412            0   -5018.7721   -1831.0196 
   22500    304.38515   -5045.3124            0   -5018.5973   -1756.8594 
   22600     297.3832   -5044.5124            0   -5018.4117   -1785.3726 
   22700    293.49127   -5044.0293            0   -5018.2703   -1828.3045 
   22800    286.11263   -5043.0577            0   -5017.9462   -1797.1287 
   22900    296.24511   -5043.9042            0   -5017.9035   -1828.2729 
   23000     301.0125   -5044.2436            0   -5017.8245   -1879.6758 
   23100    296.57216   -5043.6362            0   -5017.6068   -1722.7073 
   23200    303.66018   -5044.1886            0   -5017.5371   -1830.6234 
   23300    309.43635   -5044.3773            0   -5017.2188   -1929.9367 
   23400    294.94366   -5042.8815            0   -5016.9949   -1742.0089 
   23500    302.24984   -5043.4285            0   -5016.9008   -1822.7287 
   23600    307.74494   -5043.8343            0   -5016.8242   -1916.5734 
   23700    307.69472   -5043.6249            0   -5016.6192   -1744.9142 
   23800    305.07886   -5043.2834            0   -5016.5073   -1858.1106 
   23900    297.35587   -5042.4633            0   -5016.3651   -1971.6009 
   24000    303.31164   -5043.0117            0   -5016.3907   -1778.5966 
   24100    301.42121   -5042.5794            0   -5016.1243   -1893.7162 
   24200    293.50857   -5041.8843            0   -5016.1238   -1961.5174 
   24300    300.23431   -5042.0145            0   -5015.6636   -1873.0201 
   24400    304.28417   -5042.1167            0   -5015.4104   -1877.0273 
   24500     303.0641   -5041.7745            0   -5015.1753   -2000.5232 
   24600    296.83885   -5040.9846            0   -5014.9317   -1862.8125 
   24700    298.72686   -5041.1106            0    -5014.892   -1889.5397 
   24800    299.85591   -5041.0786            0    -5014.761   -2027.3514 
   24900    299.18209   -5040.7531            0   -5014.4946    -1884.582 
   25000    307.86803   -5041.5135            0   -5014.4927    -1887.537 
   25100    285.46664   -5039.3783            0   -5014.3235   -2036.2411 
   25200    302.26463   -5040.5836            0   -5014.0545    -1887.999 
   25300    298.58174   -5040.2272            0   -5014.0214   -1906.0024 
   25400    295.67436   -5039.6013            0   -5013.6507   -2011.7816 
   25500    309.07475   -5040.5705            0   -5013.4437   -1930.4783 
   25600    300.89872   -5039.7461            0    -5013.337   -1924.0861 
   25700    298.59806   -5039.6818            0   -5013.4746   -2027.0845 
   25800    306.71767    -5039.791            0   -5012.8712   -1966.6712 
   25900     305.5383   -5039.6737            0   -5012.8574   -1966.8261 
   26000    299.22156   -5039.2663            0   -5013.0043   -2056.2284 
   26100    304.67109   -5039.3814            0   -5012.6411   -2015.0955 
   26200    304.76348   -5038.8823            0   -5012.1339   -1977.1351 
   26300    308.88245   -5039.0751            0   -5011.9652    -2045.982 
   26400    305.53849   -5038.7037            0   -5011.8873   -2036.0876 
   26500    309.17668   -5038.6101            0   -5011.4744   -1978.5965 
   26600    297.29503   -5037.5316            0   -5011.4387   -2038.2767 
   26700     297.6588   -5037.7135            0   -5011.5887    -2049.098 
   26800    291.78993   -5036.9329            0   -5011.3232   -1988.2004 
   26900    289.76554    -5036.553            0   -5011.1209   -1998.4691 
   27000    308.21693   -5037.9756            0   -5010.9241   -2096.7506 
   27100    283.66649   -5035.7408            0   -5010.8441   -1983.9285 
   27200    293.93423   -5036.4224            0   -5010.6245   -2040.9361 
   27300    296.32891   -5036.3119            0   -5010.3038   -2129.0811 
   27400    310.24314   -5037.4735            0   -5010.2442   -2073.7288 
   27500    300.97145   -5036.2827            0   -5009.8671    -2017.748 
   27600    300.16782   -5035.9517            0   -5009.6067   -2116.2882 
   27700    293.65478   -5035.2571            0   -5009.4837   -2127.3525 
   27800     295.3383   -5035.1541            0    -5009.233   -2075.2517 
   27900    294.37206   -5035.0874            0    -5009.251    -2140.764 
   28000      286.592   -5034.2409            0   -5009.0874   -2108.5519 
   28100    294.56029   -5034.7482            0   -5008.8953   -2073.2912 
   28200    310.31182   -5035.7477            0   -5008.5124   -2185.5552 
   28300    312.44217   -5035.6725            0   -5008.2502   -2085.6827 
   28400    300.31229   -5034.5581            0   -5008.2004   -2059.8686 
   28500    299.82181   -5034.4912            0   -5008.1765   -2161.2979 
   28600    291.38075   -5033.4486            0   -5007.8748   -2119.5583 
   28700     301.0316   -5034.3719            0   -5007.9511   -2097.0371 
   28800    299.17719   -5033.9449            0   -5007.6868   -2227.2026 
   28900    287.45133   -5032.5337            0   -5007.3048   -2144.2539 
   29000    297.84624   -5033.5613            0     -5007.42    -2096.536 
   29100    288.88199   -5032.4599            0   -5007.1054   -2264.7813 
   29200    296.73848   -5032.8985            0   -5006.8545   -2153.0223 
   29300    300.72135   -5032.8346            0    -5006.441   -2092.5435 
   29400    290.16236   -5031.7711            0   -5006.3043   -2266.5444 
   29500    305.42332   -5032.6941            0   -5005.8879   -2223.7647 
   29600    290.56551   -5031.5396            0   -5006.0374   -2072.9244 
   29700    305.38145   -5032.6288            0   -5005.8262   -2294.9948 
   29800    300.87392   -5032.2059            0   -5005.7989   -2245.7863 
   29900    300.07428   -5031.7302            0   -5005.3934   -2083.2664 
   30000    296.34629   -5031.3436            0    -5005.334   -2278.5512 
   30100    299.54336   -5031.3134            0   -5005.0231   -2274.7418 
   30200    302.69399   -5031.1006            0   -5004.5338   -2080.4787 
   30300    299.26249   -5030.7902            0   -5004.5246   -2273.8611 
   30400    299.52175   -5030.3769            0   -5004.0886   -2273.1989 
   30500    293.12186   -5030.0135            0   -5004.2869   -2112.9917 
   30600    305.20346   -5030.8035            0   -5004.0165   -2300.7779 
   30700    300.75973   -5030.2356            0   -5003.8387   -2312.9893 
   30800    299.77674   -5029.9637            0    -5003.653   -2209.3795 
   30900    292.60857   -5028.9077            0   -5003.2262    -2277.995 
   31000    298.61259   -5029.1447            0   -5002.9362   -2335.2936 
   31100     295.8283   -5028.6008            0   -5002.6366   -2207.9179 
   31200    294.37457    -5028.425            0   -5002.5885   -2328.1803 
   31300    299.53366    -5028.676            0   -5002.3866   -2332.0657 
   31400    298.79605   -5028.4968            0   -5002.2721   -2226.3241 
   31500    311.37426   -5029.4457            0   -5002.1172   -2293.0487 
   31600    310.43613   -5029.3184            0   -5002.0722   -2349.3993 
   31700    301.64971   -5028.2216            0   -5001.7466   -2212.7219 
   31800    306.82697   -5028.4689            0   -5001.5394   -2309.0018 
   31900    303.55941   -5027.9438            0   -5001.3011   -2391.5044 
   32000    291.15595   -5026.7144            0   -5001.1603   -2277.3978 
   32100     315.6275    -5028.374            0   -5000.6721   -2303.1756 
   32200    305.51782   -5027.2164            0   -5000.4018   -2386.3176 
   32300    298.11298   -5026.6888            0   -5000.5241   -2323.8011 
   32400    297.32005   -5026.2071            0   -5000.1121   -2294.4413 
   32500    300.24748   -5026.5095            0   -5000.1575   -2439.6492 
   32600    302.03434   -5026.4357            0   -4999.9268   -2361.6431 
   32700     301.5344   -5026.0303            0   -4999.5653   -2331.4581 
   32800    285.71841   -5024.2305            0   -4999.1537     -2459.53 
   32900    303.51034   -5025.7569            0   -4999.1185   -2428.4751 
   33000    298.25795    -5025.067            0   -4998.8896   -2283.0152 
   33100    315.05578   -5026.3702            0   -4998.7185   -2425.6793 
   33200    303.69583   -5025.0938            0   -4998.4391   -2405.8483 
   33300    306.78653   -5025.3474            0   -4998.4215   -2300.5772 
   33400    301.75285   -5024.6248            0   -4998.1407   -2458.6772 
   33500    297.23395   -5024.4474            0   -4998.3599   -2421.0449 
   33600    300.98832   -5024.3189            0   -4997.9018   -2323.0442 
   33700    291.47662   -5023.2367            0   -4997.6545   -2481.9348 
   33800    298.57428   -5023.5175            0   -4997.3123   -2492.1385 
   33900    305.85119   -5023.9831            0   -4997.1393   -2311.9118 
   34000    288.23543    -5022.308            0   -4997.0103   -2484.8799 
   34100    301.12807   -5023.2163            0    -4996.787    -2511.257 
   34200    298.33213    -5022.781            0   -4996.5971   -2411.1642 
   34300    312.25996   -5023.4595            0   -4996.0532    -2461.618 
   34400    300.89069   -5022.3851            0   -4995.9766   -2521.7825 
   34500    304.63987   -5022.4696            0   -4995.7321   -2431.0194 
   34600    295.11431   -5021.2846            0   -4995.3832   -2482.8327 
   34700    295.33377   -5021.1759            0   -4995.2551   -2516.3271 
   34800    309.72191   -5022.2566            0    -4995.073   -2442.5268 
   34900    298.81447   -5021.1019            0   -4994.8757   -2451.6992 
   35000    297.73032   -5020.9138            0   -4994.7827   -2514.4901 
   35100    284.78053   -5019.5912            0   -4994.5966   -2493.8214 
   35200    299.94223   -5020.6122            0    -4994.287   -2441.1171 
   35300    299.35206   -5020.2991            0   -4994.0257   -2559.5158 
   35400    304.33419   -5020.5868            0   -4993.8761   -2518.7194 
   35500    306.21665   -5020.6673            0   -4993.7914   -2493.9176 
   35600    291.52393   -5019.1827            0   -4993.5963    -2539.412 
   35700    299.45746   -5019.4493            0   -4993.1666   -2558.5191 
   35800    293.72852   -5018.7107            0   -4992.9308   -2505.6522 
   35900    295.20918   -5018.5202            0   -4992.6104   -2570.9832 
   36000    298.57556   -5018.5504            0   -4992.3451   -2606.1804 
   36100    298.04361   -5018.2675            0    -4992.109   -2569.0661 
   36200    304.56169   -5018.6711            0   -4991.9405   -2574.8639 
   36300    302.84042   -5018.3343            0   -4991.7547   -2578.7443 
   36400    292.90623   -5017.4608            0   -4991.7531    -2580.063 
   36500    293.16892   -5017.1195            0   -4991.3888   -2536.9091 
   36600    301.59646   -5017.5552            0   -4991.0848   -2577.2386 
   36700    301.75486   -5017.3926            0   -4990.9083   -2570.0955 
   36800    291.77356   -5016.0232            0   -4990.4149   -2595.8688 
   36900    295.61316   -5016.2915            0   -4990.3462   -2636.3888 
   37000    295.98086   -5016.1481            0   -4990.1706   -2562.0393 
   37100     302.4486   -5016.4403            0   -4989.8951   -2590.0884 
   37200    294.54156   -5015.7427            0   -4989.8915   -2644.6318 
   37300    309.32838   -5016.6415            0   -4989.4925    -2629.007 
   37400    303.17744   -5015.9722            0    -4989.363   -2638.0812 
   37500     295.4867   -5014.9631            0   -4989.0289   -2633.4924 
   37600    306.89791   -5015.5464            0   -4988.6107   -2649.3092 
   37700    296.11954    -5014.425            0   -4988.4353   -2660.0485 
   37800     297.7793   -5014.3674            0    -4988.232   -2690.2774 
   37900    301.92547   -5014.6939            0   -4988.1946   -2594.3361 
   38000    299.22444   -5014.2107            0   -4987.9485   -2673.5183 
   38100    297.33224    -5013.644            0   -4987.5479   -2708.9383 
   38200    295.06317   -5013.2821            0   -4987.3851   -2605.7648 
   38300    294.29743   -5012.9248            0    -4987.095   -2633.8741 
   38400    302.53764   -5013.5642            0   -4987.0111   -2746.0462 
   38500    294.10569   -5012.5309            0    -4986.718   -2571.9194 
   38600    286.47244   -5011.4673            0   -4986.3243   -2683.1154 
   38700    302.80147   -5012.6896            0   -4986.1134   -2756.5318 
   38800    294.26702   -5011.9287            0   -4986.1016   -2658.5649 
   38900    311.05558   -5013.0256            0    -4985.725   -2675.0429 
   39000    296.71047   -5011.6343            0   -4985.5927   -2783.9553 
   39100    300.98182   -5011.5834            0    -4985.167   -2733.6344 
   39200    300.31264   -5011.2216            0   -4984.8639   -2662.4907 
   39300    304.43606    -5011.362            0   -4984.6424   -2779.9851 
   39400    302.84324   -5010.8147            0   -4984.2349   -2753.9008 
   39500    307.65402   -5011.3431            0    -4984.341   -2697.1439 
   39600    310.11031   -5011.3046            0    -4984.087   -2830.1583 
   39700    296.46608   -5009.6111            0    -4983.591    -2755.983 
   39800    307.05717   -5010.5407            0    -4983.591   -2663.3515 
   39900    297.48029   -5009.4523            0   -4983.3432   -2815.8981 
   40000    303.85417   -5009.6224            0   -4982.9539   -2777.3356 
   40100    292.59891    -5008.434            0   -4982.7532   -2665.6449 
   40200    289.57444   -5007.9603            0    -4982.545   -2851.3645 
   40300     284.0213   -5007.1153            0   -4982.1874   -2833.0509 
   40400     310.6689   -5009.2188            0   -4981.9521   -2687.8471 
   40500    297.08939   -5008.1224            0   -4982.0476   -2849.1137 
   40600    296.00653   -5007.6199            0   -4981.6402   -2841.3135 
   40700    302.43317   -5007.8081            0   -4981.2643   -2698.0534 
   40800    292.02395   -5006.8178            0   -4981.1875   -2896.6565 
   40900    298.99845   -5007.0004            0    -4980.758   -2884.3588 
   41000     285.7718   -5005.4311            0   -4980.3496    -2736.965 
   41100    305.39952   -5007.0362            0    -4980.232   -2890.3704 
   41200     296.3161   -5005.9986            0   -4979.9917      -2844.5 
   41300    294.46092   -5005.7041            0     -4979.86   -2724.9042 
   41400    304.22414   -5006.1841            0    -4979.483   -2904.0676 
   41500    296.36286   -5005.0999            0   -4979.0888    -2919.455 
   41600    297.86108   -5005.2626            0     -4979.12   -2742.8239 
   41700    298.00452   -5005.0233            0   -4978.8681   -2841.3284 
   41800    301.92773    -5005.038            0   -4978.5386   -2974.0939 
   41900    295.99682   -5004.3425            0   -4978.3636   -2762.2721 
   42000    313.14622   -5005.7747            0   -4978.2906   -2859.0503 
   42100    292.69858   -5003.4766            0   -4977.7871   -2995.9358 
   42200    282.84772   -5002.6581            0   -4977.8332   -2795.3651 
   42300    304.85188   -5003.9397            0   -4977.1835   -2909.8921 
   42400      306.881   -5003.7075            0   -4976.7733   -3022.6082 
   42500    297.11167   -5002.7894            0   -4976.7126   -2849.4069 
   42600    312.16046   -5003.8963            0   -4976.4987   -2822.2865 
   42700    301.80405   -5002.8535            0   -4976.3649   -3053.4926 
   42800    308.24133   -5002.9566            0   -4975.9029   -2862.1915 
   42900    297.88454   -5001.8166            0    -4975.672   -2837.5423 
   43000    301.44489   -5001.8057            0   -4975.3486   -2997.3584 
   43100    303.19162   -5001.6436            0   -4975.0332   -2914.1807 
   43200    291.04897   -5000.3968            0   -4974.8521   -2841.2669 
   43300     295.8598   -5000.4101            0   -4974.4432   -3010.8312 
   43400    305.03463   -5001.1171            0   -4974.3449   -2938.0064 
   43500     285.6632   -4999.4728            0   -4974.4008   -2855.3732 
   43600    293.12376   -4999.7799            0   -4974.0531   -3010.8823 
   43700    300.18402   -4999.8524            0    -4973.506   -3007.2262 
   43800    298.06393   -4999.6833            0   -4973.5229   -2916.2965 
   43900    294.60731   -4998.9602            0   -4973.1032   -3025.6078 
   44000    300.51339   -4999.1039            0   -4972.7285   -3048.5882 
   44100    294.47472   -4998.2905            0   -4972.4451   -2894.9358 
   44200    296.57615   -4998.1402            0   -4972.1104   -3052.0368 
   44300    294.24081   -4997.6083            0   -4971.7835   -3030.4511 
   44400    300.30628   -4998.0935            0   -4971.7363    -2911.002 
   44500    295.68086   -4997.4026            0   -4971.4514   -3022.6629 
   44600    300.15257   -4997.6005            0   -4971.2568   -3072.5161 
   44700     300.2705   -4997.4251            0    -4971.071   -2944.5491 
   44800    305.85772   -4997.6216            0   -4970.7772   -3038.8991 
   44900    297.37234   -4996.3221            0   -4970.2225   -3062.2446 
   45000    293.37277   -4995.9505            0   -4970.2019   -2930.0391 
   45100    298.75854   -4996.0435            0   -4969.8221   -3054.4108 
   45200    294.46428   -4995.5205            0   -4969.6761   -3092.2759 
   45300    305.47144   -4996.1554            0   -4969.3449   -2976.2943 
   45400    299.41824   -4995.6245            0   -4969.3452   -3064.6979 
   45500    302.58782    -4995.546            0   -4968.9886    -3143.138 
   45600     295.9872   -4994.5178            0   -4968.5397   -3030.2887 
   45700    306.70699   -4995.0034            0   -4968.0845   -3042.7039 
   45800    286.80865   -4993.1153            0   -4967.9427   -3128.9689 
   45900    291.24273   -4993.1972            0   -4967.6355   -3069.2296 
   46000     285.1736   -4992.4096            0   -4967.3806   -3114.8915 
   46100    303.18504   -4993.7525            0   -4967.1427    -3123.183 
   46200    308.49139   -4994.3009            0   -4967.2253   -3052.1022 
   46300    300.53809     -4993.17            0   -4966.7925   -3079.9056 
   46400    302.65753   -4993.0251            0   -4966.4615   -3138.7527 
   46500    297.22018   -4992.1518            0   -4966.0655   -3093.9945 
   46600    300.57309   -4991.9127            0   -4965.5321   -3044.7082 
   46700    299.07141   -4991.7696            0   -4965.5209    -3143.538 
   46800     294.3675   -4991.1714            0   -4965.3355   -3186.1646 
   46900    296.79264   -4991.2703            0   -4965.2215   -3113.8452 
   47000    304.13529   -4991.4683            0    -4964.775    -3098.172 
   47100    295.43748   -4990.6286            0   -4964.6987   -3121.9806 
   47200    303.84503   -4990.8228            0   -4964.1551   -3165.5063 
   47300    292.20025   -4989.5364            0   -4963.8907   -3181.2282 
   47400    304.88479   -4990.3465            0   -4963.5875   -3180.6608 
   47500    299.22998   -4989.3247            0   -4963.0619   -3169.7479 
   47600    317.84903   -4990.7648            0   -4962.8679   -3175.4354 
   47700    303.24602   -4989.3626            0   -4962.7474   -3200.5285 
   47800    304.45774   -4989.4443            0   -4962.7228   -3150.1694 
   47900    290.57303   -4987.9123            0   -4962.4094   -3134.3068 
   48000    307.45936   -4989.1585            0   -4962.1735   -3209.9131 
   48100    292.61439   -4987.5597            0   -4961.8776   -3143.2241 
   48200    294.49646   -4987.4896            0   -4961.6424   -3251.6584 
   48300    304.51546   -4987.9129            0   -4961.1863   -3230.1215 
   48400    294.24387   -4986.8073            0   -4960.9822   -3130.2798 
   48500    304.26286   -4987.3795            0    -4960.675   -3211.7198 
   48600    295.74412   -4986.2944            0   -4960.3377   -3300.2331 
   48700    317.62753   -4988.2885            0   -4960.4111   -3186.9365 
   48800    308.52607   -4986.9117            0   -4959.8331   -3188.5329 
   48900    297.45612    -4985.552            0    -4959.445   -3313.4645 
   49000    293.07977   -4984.9241            0   -4959.2011   -3225.5839 
   49100    291.82128    -4984.408            0   -4958.7955   -3219.1778 
   49200    293.15363   -4984.2245            0   -4958.4951   -3298.9166 
   49300    305.29711   -4985.1793            0   -4958.3841   -3244.6268 
   49400    295.19013   -4984.0291            0    -4958.121   -3170.4716 
   49500    306.30287   -4984.7304            0   -4957.8469   -3349.1975 
   49600    308.12065   -4984.5527            0   -4957.5097   -3291.0157 
   49700    291.16272   -4982.9397            0   -4957.3851   -3184.0169 
   49800     293.0897     -4982.84            0   -4957.1162   -3298.4843 
   49900    288.24643   -4981.9795            0   -4956.6807   -3305.5005 
   50000    295.49148   -4982.1531            0   -4956.2185   -3212.5148 
   50100    298.18442   -4982.2362            0   -4956.0653   -3285.0765 
   50200    305.63062   -4982.4909            0   -4955.6664   -3301.8324 
   50300    294.54385   -4981.5841            0   -4955.7327   -3232.2502 
   50400    285.74374    -4980.439            0   -4955.3599   -3354.3917 
   50500    300.63426   -4981.4288            0   -4955.0429   -3385.2979 
   50600    302.70777   -4981.2639            0    -4954.696   -3253.3821 
   50700    293.13932   -4980.0775            0   -4954.3493   -3348.8265 
   50800    294.61327   -4979.9831            0   -4954.1256   -3389.2112 
   50900    306.15119    -4980.585            0   -4953.7149   -3254.1751 
   51000    296.86347   -4979.3491            0   -4953.2941   -3360.2117 
   51100    300.89365   -4979.4604            0   -4953.0517   -3383.0454 
   51200    308.49983   -4980.0083            0    -4952.932    -3286.637 
   51300     303.6237   -4979.3971            0   -4952.7488   -3399.1425 
   51400    297.38675   -4978.6032            0   -4952.5023   -3379.4262 
   51500    291.34755   -4977.3806            0   -4951.8097   -3192.6304 
   51600    292.67987   -4977.4756            0   -4951.7878   -3322.8964 
   51700    293.63958   -4977.2626            0   -4951.4905   -3497.9923 
   51800    295.77428   -4977.0853            0   -4951.1259   -3259.3339 
   51900    300.10871   -4977.0389            0    -4950.699    -3356.588 
   52000    299.37646   -4976.8237            0   -4950.5482   -3503.8298 
   52100    301.24216   -4976.7569            0   -4950.3176    -3316.341 
   52200    306.01066   -4976.9604            0   -4950.1025   -3362.8717 
   52300    299.39006   -4975.9053            0   -4949.6285    -3551.812 
   52400     313.2947    -4976.761            0   -4949.2639   -3319.4265 
   52500    307.91187   -4976.0577            0    -4949.033   -3343.0279 
   52600    301.52566   -4975.2443            0   -4948.7801   -3565.5996 
   52700    299.11596   -4974.9032            0   -4948.6505   -3418.5364 
   52800    300.47013   -4974.4314            0   -4948.0598   -3334.6631 
   52900    306.26987   -4974.7921            0   -4947.9116   -3484.4452 
   53000     306.1352   -4974.4879            0   -4947.6192   -3425.6093 
   53100    299.90287   -4973.6628            0    -4947.341   -3343.7236 
   53200    295.71886   -4972.8883            0   -4946.9337   -3470.4944 
   53300    301.70883   -4973.0304            0   -4946.5502    -3401.293 
   53400    296.94005   -4972.4849            0   -4946.4231    -3382.541 
   53500    306.27968   -4973.1175            0   -4946.2361   -3520.7952 
   53600    294.71897   -4971.5869            0   -4945.7201   -3467.8911 
   53700    290.36798   -4970.8549            0     -4945.37   -3436.6028 
   53800    291.74361    -4970.713            0   -4945.1073     -3456.09 
   53900    287.54677   -4970.0003            0    -4944.763   -3480.2089 
   54000    309.56578    -4971.633            0   -4944.4632   -3528.8028 
   54100    303.60388    -4970.891            0   -4944.2444   -3494.2045 
   54200    287.34331   -4969.1517            0   -4943.9322    -3477.363 
   54300    304.39321   -4970.2812            0   -4943.5653   -3455.6432 
   54400    299.17661   -4969.5544            0   -4943.2964   -3568.5089 
   54500    306.56307   -4969.8328            0   -4942.9264   -3507.7457 
   54600     311.5292   -4970.1987            0   -4942.8565   -3448.1351 
   54700     298.9141   -4968.6402            0   -4942.4052   -3496.7847 
   54800    295.74895   -4968.1292            0    -4942.172   -3471.6168 
   54900    299.99592   -4968.0919            0    -4941.762    -3523.823 
   55000     306.8332   -4968.5323            0   -4941.6023   -3543.9951 
   55100    307.66702   -4968.2293            0   -4941.2261   -3530.2499 
   55200     307.5066   -4968.0787            0   -4941.0895   -3538.1063 
   55300    303.05282   -4967.2654            0   -4940.6672   -3532.4977 
   55400     296.5652    -4966.302            0   -4940.2732   -3546.9574 
   55500    292.29469   -4965.6731            0   -4940.0191   -3542.7562 
   55600     293.9694   -4965.7367            0   -4939.9357    -3535.943 
   55700    313.26593   -4966.8913            0   -4939.3967   -3609.3222 
   55800    290.40163   -4964.5739            0    -4939.086   -3649.2194 
   55900    308.65399   -4965.7126            0   -4938.6228   -3534.0154 
   56000    295.79195   -4964.3155            0   -4938.3545    -3564.546 
   56100     298.1005   -4964.4767            0   -4938.3132   -3594.3474 
   56200    307.54711   -4964.9049            0   -4937.9122   -3547.6495 
   56300    294.33624   -4963.2538            0   -4937.4206   -3532.3127 
   56400    297.79584   -4963.3521            0   -4937.2153   -3626.8665 
   56500    301.12371    -4963.332            0   -4936.9031   -3537.0162 
   56600    304.36906   -4963.4998            0   -4936.7861    -3565.481 
   56700     307.0719   -4963.1422            0   -4936.1912   -3660.2945 
   56800    295.45592   -4961.8296            0   -4935.8981     -3604.22 
   56900    311.33698   -4962.9571            0   -4935.6317    -3532.667 
   57000    301.95976   -4961.6699            0   -4935.1676   -3649.1727 
   57100    309.02225   -4962.2662            0    -4935.144   -3643.7528 
   57200    309.48585   -4961.9646            0   -4934.8018   -3555.5233 
   57300    304.33669   -4961.1244            0   -4934.4135   -3680.8976 
   57400     293.4734   -4959.7323            0   -4933.9748    -3644.645 
   57500    286.72496   -4959.0029            0   -4933.8377   -3628.2768 
   57600    297.96865   -4959.5256            0   -4933.3736   -3680.9727 
   57700    298.82891   -4959.2034            0   -4932.9759    -3632.637 
   57800    308.56624   -4959.6671            0   -4932.5849   -3575.0045 
   57900    296.51019   -4958.6036            0   -4932.5796   -3685.8345 
   58000    303.71563   -4958.8086            0   -4932.1522    -3744.498 
   58100    291.93443     -4957.51            0   -4931.8876   -3565.8146 
   58200    299.64652   -4957.8548            0   -4931.5555   -3663.7427 
   58300    306.50736   -4958.1785            0    -4931.277   -3726.1036 
   58400    294.02314   -4956.9659            0   -4931.1602   -3628.5414 
   58500    296.50211   -4956.9006            0   -4930.8773   -3685.9628 
   58600    291.40151   -4955.9251            0   -4930.3495   -3734.6055 
   58700    296.35823   -4956.2286            0   -4930.2179   -3634.5632 
   58800    305.84305   -4956.4774            0   -4929.6342   -3696.9946 
   58900    303.95865    -4955.992            0   -4929.3143   -3791.3898 
   59000    301.96505   -4955.6196            0   -4929.1169   -3671.0856 
   59100    308.59522   -4955.7065            0   -4928.6218   -3697.6668 
   59200    298.30403   -4954.4664            0   -4928.2849    -3785.213 
   59300    304.33519   -4954.9967            0   -4928.2859   -3677.4556 
   59400    309.65115   -4954.9644            0   -4927.7871   -3736.4965 
   59500    292.41209   -4952.9774            0   -4927.3131    -3765.504 
   59600    309.04082   -4954.2074            0   -4927.0837   -3664.4424 
   59700    295.17715     -4952.67            0    -4926.763   -3708.9386 
   59800    311.19186    -4953.681            0   -4926.3684   -3782.9439 
   59900    307.49149    -4953.092            0   -4926.1042   -3750.6626 
   60000    308.60538   -4952.9155            0   -4925.8299    -3684.503 
   60100    304.84264    -4952.189            0   -4925.4337   -3771.6878 
   60200    299.68892   -4951.6254            0   -4925.3224   -3763.7179 
   60300    303.92606   -4951.5367            0   -4924.8619   -3717.6486 
   60400     296.4853   -4950.6872            0   -4924.6654   -3832.1664 
   60500    287.98661   -4949.5317            0   -4924.2558   -3773.1718 
   60600    293.03977   -4949.4607            0   -4923.7413   -3758.9061 
   60700    301.48612   -4950.0953            0   -4923.6346   -3856.4672 
   60800    307.78371   -4950.1831            0   -4923.1696   -3790.2176 
   60900    303.90897   -4949.6339            0   -4922.9605   -3765.2581 
   61000     313.8095   -4950.1652            0   -4922.6229   -3795.0833 
   61100    308.25773   -4949.3196            0   -4922.2645   -3856.5186 
   61200    294.68596   -4947.8012            0   -4921.9373   -3775.4088 
   61300    302.60714    -4948.142            0   -4921.5829    -3781.562 
   61400    289.22437   -4946.6177            0   -4921.2331   -3868.3623 
   61500    303.50597   -4947.6611            0   -4921.0231    -3830.825 
   61600    297.34689   -4946.6618            0   -4920.5644   -3763.1004 
   61700    301.08224   -4946.7363            0    -4920.311   -3892.5501 
   61800    305.18774   -4946.5754            0   -4919.7898   -3839.7915 
   61900    299.26413    -4945.853            0   -4919.5873   -3792.8709 
   62000    291.93011   -4944.9943            0   -4919.3723   -3936.0673 
   62100    294.54513   -4944.8971            0   -4919.0456    -3854.165 
   62200    292.99483     -4944.33            0   -4918.6146   -3813.0925 
   62300     298.0327   -4944.4803            0   -4918.3226   -3883.9965 
   62400    300.07481   -4944.2062            0   -4917.8694   -3941.7777 
   62500    299.53868   -4943.8497            0   -4917.5599   -3789.7614 
   62600    304.33023   -4943.9695            0   -4917.2592   -3859.4831 
   62700    308.51414    -4944.016            0   -4916.9385   -3970.9813 
   62800    300.84921   -4942.8475            0   -4916.4427   -3840.5009 
   62900    303.62896   -4942.9994            0   -4916.3506   -3857.9351 
   63000    293.77078   -4941.7072            0   -4915.9237   -3964.8481 
   63100     301.7106   -4942.0662            0   -4915.5858   -3849.9018 
   63200    288.77926   -4940.7301            0   -4915.3847   -3830.5399 
   63300     299.2791   -4941.3086            0   -4915.0416   -3988.8842 
   63400    300.78924   -4941.2172            0   -4914.8176   -3847.1396 
   63500    292.09692   -4940.0613            0   -4914.4246   -3863.8825 
   63600    296.25185   -4940.1457            0   -4914.1444   -4003.6011 
   63700    292.49074   -4939.4089            0   -4913.7377   -3907.7585 
   63800    295.88203    -4939.237            0   -4913.2681   -3912.1666 
   63900    284.09964     -4937.82            0   -4912.8853   -4022.8659 
   64000    298.63526   -4938.8064            0   -4912.5959   -3902.9483 
   64100    306.83907   -4939.1271            0   -4912.1966   -3915.5277 
   64200    298.10514   -4938.0939            0   -4911.9299    -4037.706 
   64300    306.35555    -4938.468            0   -4911.5799   -3966.1692 
   64400    291.98145   -4936.8442            0   -4911.2177   -3891.2097 
   64500    306.61871   -4937.6481            0   -4910.7369    -4004.706 
   64600     295.7205   -4936.2717            0    -4910.317   -3995.1826 
   64700     307.0625   -4937.0737            0   -4910.1236   -3858.9754 
   64800    303.63668   -4936.4039            0   -4909.7545    -4008.609 
   64900      296.465   -4935.3021            0   -4909.2821   -4012.2305 
   65000    297.64513   -4935.3356            0    -4909.212   -3863.9433 
   65100    305.56148    -4935.816            0   -4908.9975    -4033.236 
   65200    295.55142   -4934.6406            0   -4908.7007   -4070.4497 
   65300    296.82286   -4934.3745            0   -4908.3231   -3904.4012 
   65400    298.07072   -4933.9632            0   -4907.8022   -4051.0749 
   65500    292.87093   -4933.2598            0   -4907.5552   -4098.3794 
   65600    305.14916    -4933.914            0   -4907.1318   -3885.1907 
   65700    300.00103   -4933.2508            0   -4906.9204   -4057.3744 
   65800     294.5604    -4932.359            0   -4906.5062   -4127.8706 
   65900    296.53318   -4932.4187            0   -4906.3927   -3942.8321 
   66000    310.23633   -4932.9264            0   -4905.6977   -4010.1826 
   66100    297.23704   -4931.4239            0   -4905.3361   -4131.3573 
   66200     295.9588   -4931.0997            0   -4905.1241   -4007.1163 
   66300    301.96499   -4931.1778            0   -4904.6751   -3967.7811 
   66400    299.18411   -4930.5345            0   -4904.2758   -4126.8322 
   66500    303.90385    -4930.683            0   -4904.0101   -4054.4861 
   66600    300.78963   -4930.0676            0    -4903.668   -3987.2705 
   66700    292.00424   -4928.8489            0   -4903.2204   -4088.2193 
   66800    298.39459   -4929.0597            0   -4902.8704   -4072.0343 
   66900    297.66962   -4928.7861            0   -4902.6604   -4041.5554 
   67000    302.77309   -4928.8438            0   -4902.2702   -4125.8128 
   67100    298.16776    -4927.885            0   -4901.7156   -4091.1979 
   67200    297.02961   -4927.5578            0   -4901.4882     -4058.88 
   67300     302.5844   -4927.9706            0   -4901.4134   -4103.8015 
   67400    300.43079   -4927.1542            0   -4900.7861   -4118.5049 
   67500    305.41181   -4927.1358            0   -4900.3306   -4079.8771 
   67600    300.16605   -4926.3393            0   -4899.9944   -4108.8712 
   67700    310.98363    -4927.322            0   -4900.0277   -4152.3481 
   67800    295.14569    -4925.292            0   -4899.3878   -4110.2036 
   67900    296.03614   -4925.0814            0    -4899.099   -4059.2999 
   68000    300.37026   -4924.9965            0   -4898.6338   -4125.0837 
   68100    299.38496   -4924.8921            0   -4898.6157   -4124.7791 
   68200    299.32841   -4924.2277            0   -4897.9563   -4106.9286 
   68300    304.03945   -4924.4074            0   -4897.7226   -4157.5431 
   68400    302.72214   -4923.9986            0   -4897.4294   -4132.6532 
   68500    293.20043   -4922.7248            0   -4896.9913   -4121.4604 
   68600    295.71365   -4922.7169            0   -4896.7628   -4202.1906 
   68700    298.54688   -4922.4901            0   -4896.2874   -4147.5493 
   68800      306.688   -4922.9459            0   -4896.0286   -4104.1057 
   68900    285.12357   -4920.7091            0   -4895.6845   -4192.3529 
   69000    293.68351   -4920.8097            0   -4895.0338   -4231.7842 
   69100    306.51468   -4921.5907            0   -4894.6886   -4103.3156 
   69200    316.22497    -4922.184            0   -4894.4297   -4217.7463 
   69300    308.05725   -4920.9842            0   -4893.9467   -4232.3008 
   69400    299.76224   -4920.1475            0   -4893.8381   -4120.7092 
   69500    301.62431   -4920.0752            0   -4893.6024   -4205.5022 
   69600    296.94018   -4919.3365            0   -4893.2747   -4277.8465 
   69700    293.55626   -4918.5191            0   -4892.7544   -4120.3367 
   69800    298.71191    -4918.481            0   -4892.2637    -4148.283 
   69900    312.19032   -4919.4451            0   -4892.0449   -4345.4218 
   70000    298.42719   -4917.7944            0   -4891.6022   -4171.7593 
   70100     297.7646   -4917.5348            0   -4891.4007   -4169.0484 
   70200    305.77179   -4917.8871            0   -4891.0502     -4311.57 
   70300    294.20361   -4916.5991            0   -4890.7776    -4196.451 
   70400    275.31078    -4914.622            0   -4890.4587   -4178.4683 
   70500    286.72549   -4915.2926            0   -4890.1273   -4345.7043 
   70600    297.40581   -4915.5432            0   -4889.4406   -4165.3276 
   70700    301.53305   -4915.5462            0   -4889.0814   -4161.6235 
   70800    299.12221   -4915.0012            0    -4888.748   -4366.8293 
   70900    294.17897   -4914.2208            0   -4888.4014   -4261.3506 
   71000     303.7991   -4914.8833            0   -4888.2196   -4167.9914 
   71100    293.16882   -4913.3227            0    -4887.592   -4309.2527 
   71200    302.18102   -4913.6839            0   -4887.1622   -4306.9986 
   71300    305.13179   -4913.6592            0   -4886.8785    -4157.436 
   71400    299.09134   -4912.8449            0   -4886.5943    -4348.659 
   71500     301.6248   -4912.9071            0   -4886.4342   -4312.7416 
   71600    311.08052   -4913.2165            0   -4885.9137   -4140.9609 
   71700    300.47593   -4911.7716            0   -4885.3996   -4395.4992 
   71800    296.43553   -4911.4048            0   -4885.3873   -4342.6123 
   71900    286.64139   -4910.0124            0   -4884.8546   -4160.7777 
   72000     306.2562   -4911.3821            0   -4884.5028   -4362.3142 
   72100    294.99253   -4909.7461            0   -4883.8553   -4402.2009 
   72200    303.84438   -4910.3834            0   -4883.7157   -4253.5394 
   72300    301.91375   -4909.6154            0   -4883.1172   -4376.1366 
   72400    312.35081   -4910.1747            0   -4882.7604   -4404.9414 
   72500    305.29754   -4909.3603            0   -4882.5651   -4228.4112 
   72600     296.3173   -4908.2803            0   -4882.2732   -4374.9845 
   72700    307.87556   -4908.8505            0    -4881.829   -4424.3196 
   72800     304.7514   -4908.5414            0   -4881.7941   -4234.1894 
   72900    299.31589   -4907.5996            0   -4881.3294   -4335.1841 
   73000    296.49962   -4906.6179            0   -4880.5948    -4490.531 
   73100    293.69023   -4906.2766            0   -4880.5001   -4276.0395 
   73200    292.46706   -4905.6741            0   -4880.0049   -4270.6668 
   73300    299.12234   -4905.7193            0   -4879.4661   -4447.3287 
   73400    301.54432   -4905.6123            0   -4879.1465   -4310.1914 
   73500    293.55227   -4904.7248            0   -4878.9604    -4340.998 
   73600    302.26856   -4905.1236            0   -4878.5942   -4470.2776 
   73700     310.4165   -4905.3453            0   -4878.1008    -4346.399 
   73800    293.34215   -4903.5717            0   -4877.8258   -4339.0306 
   73900    300.47302   -4903.7505            0   -4877.3787   -4456.6732 
   74000    296.31588   -4903.1137            0   -4877.1067   -4433.4016 
   74100    304.51465   -4903.3641            0   -4876.6376   -4356.3028 
   74200     290.7849   -4901.6469            0   -4876.1254   -4434.9752 
   74300    306.32218   -4902.7593            0   -4875.8741   -4450.0486 
   74400    302.01364   -4902.1668            0   -4875.6598   -4388.7784 
   74500    305.05229   -4901.8938            0   -4875.1201    -4431.475 
   74600    307.40114    -4901.643            0   -4874.6631   -4415.1763 
   74700    299.48567   -4900.7372            0   -4874.4521   -4404.5947 
   74800    311.33519   -4901.3569            0   -4874.0318   -4459.5348 
   74900    295.93627   -4899.5865            0   -4873.6129   -4459.3947 
   75000    299.14051     -4899.49            0   -4873.2352   -4415.4384 
   75100    287.31397   -4898.1144            0   -4872.8976   -4417.8201 
   75200    298.25723   -4898.8329            0   -4872.6556    -4545.802 
   75300    298.08181   -4898.2215            0   -4872.0596   -4440.5696 
   75400    302.31439   -4898.3007            0   -4871.7673   -4395.5891 
   75500    301.09736   -4897.7974            0   -4871.3708   -4484.8253 
   75600    306.53733   -4897.8284            0   -4870.9244   -4489.0363 
   75700    313.13256   -4898.0474            0   -4870.5645   -4451.4033 
   75800    305.71443   -4897.0129            0   -4870.1811   -4530.0038 
   75900    306.70542   -4896.8381            0   -4869.9193   -4492.4849 
   76000    306.11586   -4896.2317            0   -4869.3646   -4438.8398 
   76100    301.37651   -4895.5733            0   -4869.1222   -4538.6466 
   76200    306.60952   -4895.5391            0   -4868.6287   -4538.2394 
   76300    303.33266   -4895.1097            0   -4868.4869   -4426.4061 
   76400    296.63562   -4894.0012            0   -4867.9662   -4523.2312 
   76500    299.56442   -4893.9695            0   -4867.6774   -4575.6244 
   76600    302.50706    -4893.693            0   -4867.1426   -4422.6702 
   76700    296.97131   -4892.9839            0   -4866.9194   -4461.8458 
   76800    297.23595   -4892.5205            0   -4866.4328   -4593.3675 
   76900    293.51706   -4891.8435            0   -4866.0822   -4481.7087 
   77000    295.98597    -4891.768            0     -4865.79   -4518.1571 
   77100    285.28481   -4890.3437            0   -4865.3049   -4622.3488 
   77200    305.51171   -4891.7138            0   -4864.8998   -4456.3874 
   77300    298.81414   -4890.6594            0   -4864.4332   -4491.1914 
   77400    296.89357   -4890.2404            0   -4864.1827   -4678.8752 
   77500    290.62365   -4889.2953            0   -4863.7879   -4544.4527 
   77600    293.59604   -4889.2578            0   -4863.4895   -4460.1764 
   77700    286.61137   -4887.9962            0    -4862.841   -4640.0956 
   77800     295.4829   -4888.3561            0   -4862.4223   -4574.0424 
   77900    308.06882   -4889.3918            0   -4862.3533   -4441.3876 
   78000    298.49125   -4887.9457            0   -4861.7478   -4654.4652 
   78100    302.00184   -4887.8385            0   -4861.3325   -4636.4267 
   78200    301.51404   -4887.5102            0    -4861.047   -4450.0572 
   78300     301.9416   -4887.2174            0   -4860.7167   -4618.6965 
   78400    297.93689   -4886.4586            0   -4860.3094   -4627.4479 
   78500    312.17532   -4887.3777            0   -4859.9788   -4483.3264 
   78600    296.99909   -4885.7573            0   -4859.6904   -4668.7445 
   78700    288.37567   -4884.5705            0   -4859.2604   -4664.3346 
   78800    304.90266   -4885.5391            0   -4858.7785   -4515.1818 
   78900    302.20055   -4884.9498            0   -4858.4264   -4693.3776 
   79000    307.09627   -4884.7114            0   -4857.7583   -4686.6027 
   79100    306.12045   -4884.4714            0   -4857.6039   -4470.2454 
   79200    300.84344   -4883.3471            0   -4856.9428   -4664.9909 
   79300     308.0069   -4883.9016            0   -4856.8685   -4706.2968 
   79400    296.84891    -4882.381            0   -4856.3273   -4542.3403 
   79500    298.30785   -4882.3315            0   -4856.1497   -4662.8295 
   79600    305.88011   -4882.5116            0   -4855.6652   -4727.1919 
   79700    303.45135   -4881.9781            0   -4855.3449   -4581.4705 
   79800    296.00361   -4880.9903            0   -4855.0108   -4578.0901 
   79900    299.68925   -4880.5654            0   -4854.2623   -4714.6338 
   80000    299.64391   -4880.4187            0   -4854.1196   -4631.8511 
   80100    307.90854   -4880.6752            0   -4853.6507   -4590.8655 
   80200     300.8049   -4879.7683            0   -4853.3673   -4737.2956 
   80300    301.65985   -4879.4389            0   -4852.9629   -4689.3452 
   80400    287.80802   -4878.0538            0   -4852.7936   -4589.0752 
   80500    294.65071   -4878.2013            0   -4852.3405   -4774.8894 
   80600     287.0206   -4877.0363            0   -4851.8452   -4685.7312 
   80700     302.2244    -4877.982            0   -4851.4565   -4626.1616 
   80800    310.40136   -4878.0431            0   -4850.7999   -4788.4691 
   80900    300.51692   -4876.7595            0   -4850.3838   -4709.8116 
   81000    306.63531   -4876.9127            0   -4850.0001   -4588.1471 
   81100    300.65385   -4876.1762            0   -4849.7885   -4784.0792 
   81200    307.92857   -4876.3102            0   -4849.2841   -4753.6259 
   81300     297.9596   -4875.1122            0    -4848.961   -4610.2706 
   81400    300.41176   -4875.0141            0   -4848.6477   -4737.9841 
   81500     297.4363   -4874.1646            0   -4848.0593   -4794.5603 
   81600    298.88156   -4873.8811            0    -4847.649   -4678.0033 
   81700    304.79884   -4874.1306            0   -4847.3791   -4740.4175 
   81800    306.63034   -4873.9098            0   -4846.9976   -4784.6207 
   81900    301.89479   -4872.8979            0   -4846.4013   -4692.8517 
   82000    303.95365   -4872.5614            0   -4845.8841   -4712.4975 
   82100    305.93012   -4872.7468            0    -4845.896   -4776.1679 
   82200    299.73846   -4871.7909            0   -4845.4835   -4779.2357 
   82300    298.36919   -4871.1179            0   -4844.9307   -4733.1709 
   82400    296.98862   -4870.4118            0   -4844.3458   -4784.1488 
   82500    302.10504   -4870.4879            0   -4843.9728   -4749.2831 
   82600     300.3323   -4869.9397            0   -4843.5802    -4748.934 
   82700    306.04633   -4870.0254            0   -4843.1644   -4827.2606 
   82800    305.93715   -4869.7101            0   -4842.8587   -4770.7386 
   82900    307.06642   -4869.3214            0   -4842.3709   -4685.8066 
   83000    314.15594   -4869.6646            0   -4842.0919   -4846.7801 
   83100    297.36114   -4867.8059            0   -4841.7072   -4829.3025 
   83200    294.35939   -4867.2589            0   -4841.4236   -4709.8987 
   83300    299.22112   -4867.0818            0   -4840.8199    -4800.227 
   83400    307.31253   -4867.6324            0   -4840.6603   -4835.0301 
   83500    292.81442   -4865.9907            0   -4840.2911   -4774.4309 
   83600     297.8826   -4865.8084            0   -4839.6639   -4803.8483 
   83700    305.93534   -4866.0477            0   -4839.1965   -4886.9053 
   83800    299.63309   -4865.0202            0   -4838.7221   -4817.0752 
   83900     292.0718    -4864.164            0   -4838.5295   -4793.0409 
   84000    303.40599   -4864.7981            0   -4838.1689   -4868.2745 
   84100       285.98   -4862.8811            0   -4837.7813   -4838.6929 
   84200    295.05036   -4863.0792            0   -4837.1833   -4821.5942 
   84300    291.62916   -4862.4188            0   -4836.8232   -4878.5168 
   84400     299.2406   -4862.5975            0   -4836.3339   -4842.0678 
   84500    306.44783   -4862.6428            0   -4835.7466   -4800.0348 
   84600    303.93526   -4862.1623            0   -4835.4867   -4911.3989 
   84700    299.66009   -4861.4846            0   -4835.1841   -4874.4764 
   84800    295.16038   -4860.8455            0     -4834.94   -4813.3919 
   84900    298.78196   -4860.7243            0   -4834.5009   -4871.4548 
   85000    297.93671   -4860.2859            0   -4834.1367   -4899.0654 
   85100     303.1605   -4860.1869            0   -4833.5792   -4813.2809 
   85200    291.80887   -4859.0116            0   -4833.4003   -4915.6481 
   85300    303.74651     -4859.58            0   -4832.9208   -4897.8185 
   85400    305.57619   -4859.1635            0   -4832.3438   -4773.2246 
   85500    313.31487    -4859.547            0   -4832.0481    -4945.127 
   85600    298.88015   -4857.8058            0   -4831.5738   -4940.4872 
   85700    304.84471   -4857.9735            0    -4831.218   -4786.4912 
   85800    299.72525   -4856.9452            0   -4830.6391   -4871.2133 
   85900    288.29973   -4855.6147            0   -4830.3113    -4992.425 
   86000    307.00225   -4856.8531            0   -4829.9082    -4826.315 
   86100    299.36235   -4855.5508            0   -4829.2765   -4897.3232 
   86200    310.30347   -4856.2337            0   -4828.9991   -5008.6599 
   86300    312.60629   -4856.2641            0   -4828.8274   -4855.0561 
   86400    309.15841   -4855.2925            0   -4828.1584   -4878.6665 
   86500    292.83374   -4853.4984            0    -4827.797   -4999.7105 
   86600    298.64656   -4853.8105            0    -4827.599   -4899.0644 
   86700    298.57427   -4853.1691            0    -4826.964   -4870.5825 
   86800     295.5361    -4852.492            0   -4826.5535   -5022.1876 
   86900    304.63037   -4852.9169            0   -4826.1802   -4935.1032 
   87000    297.63361   -4851.7467            0   -4825.6241   -4882.3532 
   87100    298.90651   -4851.6216            0   -4825.3873   -5039.1051 
   87200    298.99898   -4851.1583            0   -4824.9159   -4960.2176 
   87300    292.79841   -4850.3663            0   -4824.6681   -4804.2128 
   87400    291.54104   -4850.0985            0   -4824.5107   -5026.6677 
   87500    283.83417   -4848.5601            0   -4823.6486    -5034.117 
   87600    291.93744   -4848.7565            0   -4823.1338   -4841.9582 
   87700    306.64923   -4849.7571            0   -4822.8432   -5006.4802 
   87800    295.56952   -4848.2797            0   -4822.3382   -5066.1783 
   87900    303.34918   -4848.5975            0   -4821.9732   -4875.9161 
   88000    296.69376   -4847.5366            0   -4821.4965   -5022.3509 
   88100    302.79733   -4847.7965            0   -4821.2207   -5090.3254 
   88200    304.04601   -4847.7095            0   -4821.0241   -4896.9182 
   88300    314.15047   -4847.8762            0   -4820.3039   -5005.4624 
   88400    303.96967   -4846.5311            0   -4819.8524   -5075.2292 
   88500    290.91026   -4845.1517            0   -4819.6192    -4926.501 
   88600    310.26153   -4846.4187            0   -4819.1877   -4998.9034 
   88700    311.96061   -4845.7871            0   -4818.4071   -5094.5157 
   88800    303.18111   -4844.8679            0   -4818.2584   -4990.8291 
   88900    312.15713   -4845.2434            0   -4817.8461   -5066.3994 
   89000    309.07128   -4844.5772            0   -4817.4507   -5035.8261 
   89100    297.48644   -4843.1468            0   -4817.0371    -4987.369 
   89200    307.78839   -4843.5214            0   -4816.5076    -5078.842 
   89300     292.9609   -4841.9223            0   -4816.2099   -5121.2571 
   89400    288.10432   -4840.9728            0   -4815.6865   -4999.0543 
   89500    300.11929   -4841.5834            0   -4815.2426   -5004.2325 
   89600    294.63548   -4840.5991            0   -4814.7396   -5124.8039 
   89700     300.2754   -4840.4602            0   -4814.1058   -5080.2386 
   89800    301.83098   -4840.3497            0   -4813.8587   -5009.0576 
   89900    308.26128   -4840.7687            0   -4813.7133   -5094.6175 
   90000    297.82808   -4839.4219            0   -4813.2822   -5084.3116 
   90100    316.82166   -4840.3241            0   -4812.5174    -4984.985 
   90200    303.83493    -4838.684            0   -4812.0171   -5065.3415 
   90300    306.70317   -4838.7451            0   -4811.8265   -5111.7207 
   90400    312.63219   -4838.8993            0   -4811.4603    -5050.927 
   90500    295.35877   -4836.8916            0   -4810.9686     -5100.39 
   90600    302.95012   -4837.3012            0    -4810.712   -5122.0051 
   90700    291.73328   -4835.8727            0    -4810.268   -5066.8613 
   90800    297.55029   -4835.8802            0   -4809.7649   -5042.8028 
   90900    289.04321   -4834.7336            0    -4809.365   -5162.0595 
   91000    293.80883   -4834.7287            0   -4808.9418   -5103.0822 
   91100    299.36534   -4834.6117            0   -4808.3371   -5114.2599 
   91200    293.37967   -4833.8856            0   -4808.1363   -5160.8053 
   91300     294.1541   -4833.4242            0    -4807.607   -5100.3189 
   91400    299.84871   -4833.3172            0   -4807.0002    -5076.711 
   91500    300.02839   -4833.0362            0   -4806.7034   -5254.7697 
   91600    306.14043   -4833.3464            0   -4806.4771    -5111.494 
   91700      294.334   -4831.8552            0   -4806.0222   -5055.4028 
   91800    295.94124   -4831.5843            0   -4805.6103   -5160.3851 
   91900    287.89472   -4830.3052            0   -4805.0374    -5160.933 
   92000    301.19909   -4831.1007            0   -4804.6651   -5075.1057 
   92100    303.65073   -4830.7028            0   -4804.0521   -5132.3727 
   92200    298.92005   -4830.1158            0   -4803.8803   -5215.5488 
   92300    306.11701   -4830.3659            0   -4803.4987   -5137.2915 
   92400    305.34872   -4829.7207            0    -4802.921   -5160.9935 
   92500    299.62375   -4828.8005            0   -4802.5033   -5136.7294 
   92600    298.15899   -4828.2665            0   -4802.0978   -5164.9887 
   92700    307.54571   -4828.6134            0   -4801.6208   -5074.1634 
   92800    303.23467   -4827.9146            0   -4801.3004   -5192.8376 
   92900    298.87562   -4826.9133            0   -4800.6817   -5217.6298 
   93000    294.75011    -4826.253            0   -4800.3835   -5155.4023 
   93100    312.27946   -4827.2677            0   -4799.8597   -5247.0719 
   93200    304.62187   -4826.0466            0   -4799.3106   -5245.3299 
   93300    303.59199   -4825.9463            0   -4799.3008   -5121.7471 
   93400    298.20845   -4824.7909            0   -4798.6179   -5185.8671 
   93500    297.54944   -4824.1222            0    -4798.007   -5182.4547 
   93600    294.06661   -4823.6198            0   -4797.8103   -5177.3522 
   93700    299.85982   -4823.4112            0   -4797.0932    -5236.662 
   93800    307.90689   -4823.9745            0   -4796.9503   -5219.6591 
   93900     298.7251   -4822.6322            0   -4796.4138   -5189.4125 
   94000    308.78149   -4823.3647            0   -4796.2636   -5239.3182 
   94100    301.94991   -4822.1764            0    -4795.675   -5259.8466 
   94200    301.67873   -4821.8341            0   -4795.3565   -5235.8767 
   94300    296.56378   -4820.9821            0   -4794.9534   -5216.2048 
   94400    296.15467   -4820.4006            0   -4794.4078   -5246.4867 
   94500    295.14002   -4819.8792            0   -4793.9755   -5329.7375 
   94600    296.28267   -4819.6767            0   -4793.6727   -5262.2239 
   94700    298.64255   -4819.2173            0   -4793.0061   -5220.5401 
   94800    309.49216   -4819.5246            0   -4792.3612   -5300.5803 
   94900    299.07013   -4818.3357            0    -4792.087   -5248.7703 
   95000    302.55325    -4818.251            0   -4791.6966   -5277.5872 
   95100    297.06566   -4817.4408            0   -4791.3681   -5287.9632 
   95200    307.69981   -4817.7194            0   -4790.7134   -5256.2575 
   95300    288.80613   -4815.8306            0   -4790.4828   -5237.4226 
   95400    301.56983    -4816.368            0      -4789.9   -5277.5003 
   95500    303.38538   -4815.9657            0   -4789.3383   -5235.9655 
   95600    296.18131   -4815.0102            0   -4789.0151   -5267.4639 
   95700    302.66891   -4814.9489            0   -4788.3844   -5262.8892 
   95800     293.1903   -4813.9065            0   -4788.1739   -5246.4317 
   95900    306.26397   -4814.6263            0   -4787.7463   -5376.3082 
   96000     297.6535   -4813.4863            0   -4787.3619    -5353.765 
   96100    292.06939   -4812.7061            0   -4787.0719   -5226.8197 
   96200    288.94247   -4811.9326            0   -4786.5728   -5322.0749 
   96300    296.56366   -4811.8693            0   -4785.8406   -5382.6919 
   96400    302.87416   -4812.2063            0   -4785.6238   -5228.2569 
   96500    299.11642   -4811.2782            0   -4785.0254   -5308.3995 
   96600    300.81196   -4811.0738            0   -4784.6723   -5358.6603 
   96700    310.69488   -4811.3909            0    -4784.122   -5297.2923 
   96800    297.06624   -4809.7067            0   -4783.6339   -5307.7755 
   96900    303.01303   -4809.9105            0   -4783.3158   -5382.7277 
   97000    298.35153   -4809.0446            0    -4782.859   -5277.4582 
   97100    295.11636   -4808.4696            0   -4782.5679   -5332.8423 
   97200    305.89368   -4808.7755            0   -4781.9279   -5412.9805 
   97300     307.8197   -4808.5258            0   -4781.5092   -5314.0648 
   97400    306.97255   -4807.8636            0   -4780.9214   -5283.6851 
   97500    303.77679   -4807.5018            0   -4780.8401   -5425.6062 
   97600    305.84464   -4807.1422            0   -4780.2989   -5361.0706 
   97700    292.19917   -4805.5333            0   -4779.8877    -5313.747 
   97800    302.70979   -4805.9542            0   -4779.3861   -5408.0628 
   97900    303.75834   -4805.5261            0    -4778.866   -5372.9605 
   98000    303.04125   -4805.2494            0   -4778.6522   -5277.3385 
   98100    291.55962   -4803.5111            0   -4777.9216   -5402.5525 
   98200    302.77603   -4804.1306            0   -4777.5567   -5432.8591 
   98300    299.78706   -4803.2743            0   -4776.9627   -5305.4513 
   98400    294.65294   -4802.3487            0   -4776.4878   -5342.0829 
   98500    298.73021   -4802.5077            0   -4776.2888   -5434.2346 
   98600    306.02342   -4802.8453            0   -4775.9863   -5317.4698 
   98700    302.64061   -4802.0025            0   -4775.4405   -5386.6214 
   98800    305.04863   -4801.8919            0   -4775.1185    -5440.557 
   98900    308.61474   -4801.5998            0   -4774.5134   -5343.8453 
   99000    304.08629   -4800.7478            0   -4774.0589   -5415.1501 
   99100    311.03512   -4800.9105            0   -4773.6117   -5420.4901 
   99200    295.06706   -4799.1682            0   -4773.2709   -5368.3286 
   99300    294.67531   -4798.4709            0    -4772.608   -5399.1447 
   99400    308.69852   -4799.1379            0   -4772.0442   -5385.6817 
   99500    298.40855   -4798.0581            0   -4771.8675   -5429.0109 
   99600    294.68928   -4797.2115            0   -4771.3473   -5449.8287 
   99700    300.32845   -4797.3474            0   -4770.9882   -5461.3422 
   99800    298.32707   -4796.4862            0   -4770.3027   -5352.4425 
   99900    292.91753   -4795.6107            0    -4769.902   -5468.7096 
  100000    302.53231   -4795.9195            0   -4769.3669    -5461.736 
  100100    301.20658   -4795.2843            0   -4768.8481   -5392.7629 
  100200    294.62078   -4794.5969            0   -4768.7387   -5422.7668 
  100300    296.31313   -4794.4422            0   -4768.4355   -5472.8492 
  100400     283.3933     -4792.78            0   -4767.9073   -5398.2189 
[...]
  260200    305.21854   -4927.4856            0   -4900.6973     70.16278 
  260300    302.34527   -4927.6963            0   -4901.1602    201.23819 
  260400     305.3242   -4928.5114            0   -4901.7138    57.911801 
  260500    311.61777   -4928.9705            0   -4901.6205    100.65905 
  260600    296.88297   -4928.3546            0   -4902.2979   -5.1101463 
  260700    299.37567   -4928.5828            0   -4902.3073   -99.400028 
  260800    299.41995   -4928.4304            0    -4902.151   -266.96772 
  260900    280.47145   -4926.8711            0   -4902.2548   -143.17987 
  261000    279.46741   -4926.4443            0   -4901.9161    -167.9208 
  261100    298.26051    -4927.945            0   -4901.7674   -74.740472 
  261200    301.43662    -4928.032            0   -4901.5756    5.3998284 
  261300    309.37325   -4929.0856            0   -4901.9326   -36.686288 
  261400    301.88717   -4928.8173            0   -4902.3214    85.798244 
  261500    300.81276   -4928.6814            0   -4902.2798    5.9595711 
  261600    296.67653   -4928.1214            0   -4902.0828    100.30686 
  261700    295.10848   -4927.8233            0   -4901.9223    152.01095 
  261800     293.7974   -4927.7176            0   -4901.9317    152.72383 
  261900    290.13225   -4927.6123            0    -4902.148    116.02314 
  262000    301.07992   -4928.2672            0   -4901.8421    72.919017 
  262100    295.96082   -4927.6747            0   -4901.6989    100.66645 
  262200    300.59147    -4928.388            0   -4902.0058    69.170073 
  262300    305.40999   -4928.9173            0   -4902.1122   -49.712873 
  262400    296.93318   -4928.4039            0   -4902.3428   -107.68658 
  262500    301.51187   -4928.4465            0   -4901.9835    -73.88798 
  262600    291.25281    -4927.133            0   -4901.5705   -199.53376 
  262700    286.76056   -4926.4885            0   -4901.3202   -283.86822 
  262800    288.22515     -4926.37            0   -4901.0731   -283.40573 
  262900    304.10725   -4927.7903            0   -4901.0995   -227.01007 
  263000    308.79037   -4928.3198            0    -4901.218   -76.327673 
  263100    308.06299   -4928.6026            0   -4901.5646    106.05715 
  263200    290.81741   -4927.3741            0   -4901.8497    322.30579 
  263300    307.23226   -4928.6235            0   -4901.6585    181.06791 
  263400    298.19607   -4927.6778            0   -4901.5058     145.9887 
  263500    294.43434   -4927.2759            0   -4901.4341    86.672271 
  263600    304.74284   -4928.3833            0   -4901.6368    147.06775 
  263700    305.63712   -4928.4712            0   -4901.6462    80.834023 
  263800    302.39436    -4928.559            0   -4902.0185    164.11941 
  263900    294.14889   -4927.6268            0   -4901.8101   -120.67024 
  264000    308.53284   -4928.9264            0   -4901.8472   -111.71255 
  264100    303.51071   -4928.6858            0   -4902.0474   -2.3477402 
  264200    287.28227   -4927.2265            0   -4902.0125   -218.99172 
  264300    298.51365   -4927.8234            0   -4901.6236   -117.93415 
  264400    306.24462   -4928.2207            0   -4901.3424   -105.01976 
  264500    307.66066   -4928.4082            0   -4901.4055   -16.512578 
  264600    312.85063   -4928.9798            0   -4901.5217   -105.19269 
  264700    309.71342    -4929.158            0   -4901.9752     61.44166 
  264800    302.53296   -4928.6778            0   -4902.1252    5.9973252 
  264900    296.59145   -4928.0723            0   -4902.0412    15.449399 
  265000    297.58555   -4927.9062            0   -4901.7878    112.27731 
  265100    296.85758   -4928.0271            0   -4901.9727    140.41462 
  265200    296.74481   -4927.8594            0   -4901.8148    40.849289 
  265300    298.43228   -4928.1047            0    -4901.912    186.45191 
  265400    303.59283   -4928.5261            0   -4901.8804     127.6165 
  265500    293.67164   -4927.2391            0   -4901.4643    121.47573 
  265600    290.43715   -4927.0662            0   -4901.5752    86.524832 
  265700     305.6225   -4928.4381            0   -4901.6143   -175.10606 
  265800    295.78106   -4927.7272            0   -4901.7672   -185.81696 
  265900    298.13521   -4927.6413            0   -4901.4747   -124.84827 
  266000    300.47766   -4927.6306            0   -4901.2584   -140.53729 
  266100    303.58551    -4927.925            0     -4901.28   -108.46602 
  266200     302.0067   -4928.1423            0   -4901.6359   -88.757481 
  266300    303.51708   -4928.3905            0   -4901.7515   -131.85352 
  266400    305.08351   -4928.5858            0   -4901.8093   -102.16255 
  266500    303.37392   -4928.5713            0   -4901.9449    21.536631 
  266600    308.92531   -4929.5857            0   -4902.4721     164.1236 
  266700    288.66844   -4927.6692            0   -4902.3335    75.217905 
  266800    301.02569   -4928.3071            0   -4901.8868     200.3884 
  266900    295.64096   -4927.8832            0   -4901.9355    144.24626 
  267000    296.68625   -4927.6455            0   -4901.6061   -35.478482 
  267100    306.85429   -4928.5486            0   -4901.6167    23.370023 
  267200    296.04558   -4927.5895            0   -4901.6063   0.61249711 
  267300    290.84243    -4927.472            0   -4901.9454   -17.731962 
  267400     299.8561   -4928.2194            0   -4901.9018   -87.902606 
  267500    296.12929   -4927.8567            0   -4901.8661   -65.014218 
  267600    309.64683   -4929.1396            0   -4901.9626   -185.97509 
  267700    297.43888    -4928.004            0   -4901.8985   -121.80766 
  267800    301.76769   -4928.4043            0   -4901.9189    10.002535 
  267900     301.0763   -4928.3578            0   -4901.9331   -153.45354 
  268000     307.6467   -4928.9597            0   -4901.9583   -36.066337 
  268100     298.3071   -4928.0967            0    -4901.915    107.94042 
  268200    287.35931   -4927.2145            0   -4901.9936   -52.833593 
  268300    306.03289   -4928.8415            0   -4901.9817    103.45477 
  268400    297.19405   -4928.2193            0   -4902.1353     141.2078 
  268500    297.91554   -4927.9666            0   -4901.8192   -37.500677 
  268600    300.21397    -4927.941            0    -4901.592    136.17404 
  268700    307.82795    -4928.844            0   -4901.8267    126.66163 
  268800    306.36938   -4929.1079            0   -4902.2186   -22.589112 
  268900    304.90353   -4928.7586            0   -4901.9979    85.863997 
  269000    301.45689   -4928.4068            0   -4901.9486   0.75393468 
  269100    298.44878   -4927.7607            0   -4901.5665   -176.19202 
  269200     299.0162   -4927.8109            0    -4901.567   -76.382897 
  269300    297.33561   -4927.3989            0   -4901.3024    5.8434094 
  269400    299.82119   -4927.5854            0   -4901.2708   -212.34674 
  269500    305.68936   -4928.1477            0   -4901.3181   -14.953613 
  269600    303.83217   -4928.1708            0   -4901.5042    23.542836 
  269700    303.27417   -4928.2144            0   -4901.5967   -37.352906 
  269800    307.97476   -4928.8589            0   -4901.8287   -56.410483 
  269900    305.84068   -4928.5004            0   -4901.6575    128.52537 
  270000    292.21274    -4927.584            0   -4901.9372     110.9238 
  270100    299.69756   -4928.0629            0   -4901.7592    52.622541 
  270200    300.22012   -4928.5793            0   -4902.2297    128.08633 
  270300    294.43554   -4927.9529            0    -4902.111   -45.232846 
  270400     302.0756   -4928.7968            0   -4902.2843   -59.741629 
  270500    296.97978    -4928.392            0   -4902.3268    106.51324 
  270600    286.63232   -4927.5148            0   -4902.3577    -170.3114 
  270700    297.78628   -4928.1748            0   -4902.0388   -40.912385 
  270800    305.73487   -4928.7338            0   -4901.9002   -94.998159 
  270900    299.09432    -4928.179            0   -4901.9282   -228.37452 
  271000     292.7261   -4927.5051            0   -4901.8132   -104.42129 
  271100    301.12759   -4928.2424            0   -4901.8132    134.03968 
  271200    304.82497   -4928.3186            0   -4901.5648   -123.06198 
  271300     304.7449   -4928.4533            0   -4901.7066   -8.0764184 
  271400    311.14512   -4928.9892            0   -4901.6808    71.121339 
  271500    294.68317   -4927.8237            0     -4901.96   -43.590352 
  271600    298.79535   -4928.0505            0   -4901.8259    40.563483 
  271700    295.47657   -4927.7559            0   -4901.8227    101.72907 
  271800    297.04333   -4927.9566            0   -4901.8858   -7.1280839 
  271900    293.99107   -4927.4926            0   -4901.6897    109.27226 
  272000    299.61314   -4927.9994            0    -4901.703    94.278186 
  272100    289.35158    -4927.034            0   -4901.6383    -7.579953 
  272200    313.97206   -4929.2554            0   -4901.6988   -44.233544 
  272300    293.85083   -4927.4459            0   -4901.6553    -28.72301 
  272400    299.07291   -4927.8151            0   -4901.5662    -103.7269 
  272500    294.77622   -4927.3937            0   -4901.5219    -55.35514 
  272600    297.90216   -4927.7585            0   -4901.6123   -42.123038 
  272700    308.34053   -4928.7443            0    -4901.682   -130.27699 
  272800    309.68254   -4928.7607            0   -4901.5805   -57.706885 
  272900    297.51254   -4928.0814            0   -4901.9694    53.175521 
  273000    306.90016   -4928.6101            0   -4901.6742    119.24296 
  273100    298.04919   -4928.0607            0   -4901.9016    25.760402 
  273200    307.95843   -4928.8822            0   -4901.8534    9.1675827 
  273300    297.05148   -4927.8601            0   -4901.7886    44.983728 
  273400     308.0608   -4928.8115            0   -4901.7738   -16.689051 
  273500    300.08129     -4928.29            0   -4901.9526    60.248517 
  273600    303.54681   -4928.5219            0   -4901.8803    84.072477 
  273700    304.41623   -4928.8489            0    -4902.131   -53.743688 
  273800    299.01739    -4928.332            0    -4902.088    20.829567 
  273900    296.55912   -4928.1601            0   -4902.1318   -133.37011 
  274000    297.88596   -4927.9072            0   -4901.7624   -210.45706 
  274100     293.7924   -4927.6123            0   -4901.8268    55.702913 
  274200    302.68453   -4927.9893            0   -4901.4234    8.0272675 
  274300    299.47875   -4927.9379            0   -4901.6533   -32.634087 
  274400    304.36345   -4928.5325            0   -4901.8192    -15.09529 
  274500    301.30939   -4928.1137            0   -4901.6685   -35.359314 
  274600    295.70817   -4927.8982            0   -4901.9446   -1.9303258 
  274700    308.29318   -4929.0156            0   -4901.9575    83.746433 
  274800    311.28968   -4929.1858            0   -4901.8647    144.84319 
  274900    294.60886   -4927.7458            0   -4901.8887     48.65173 
  275000    294.57912   -4927.7909            0   -4901.9364    7.5022989 
  275100    294.21097   -4927.6072            0    -4901.785   -29.678303 
  275200    297.71496   -4927.8578            0   -4901.7281     11.54997 
  275300    307.36829   -4929.1275            0   -4902.1505   -12.003372 
  275400    288.02382   -4927.0635            0   -4901.7843   -13.508829 
  275500    294.40285   -4927.7215            0   -4901.8824    98.089257 
  275600    303.44312    -4928.511            0   -4901.8785    -163.8363 
  275700    306.51521   -4928.8204            0   -4901.9183   -66.192834 
  275800    302.12688   -4928.5298            0   -4902.0128   -7.0427703 
  275900    298.12905   -4928.1935            0   -4902.0274   -95.339293 
  276000    299.64368   -4928.3995            0   -4902.1005    -49.35807 
  276100    298.64333   -4928.2171            0   -4902.0059    133.06517 
  276200    300.31099   -4928.5635            0    -4902.206   -57.909524 
  276300    310.10523   -4929.3724            0   -4902.1552    55.896766 
  276400     284.3507   -4926.9154            0   -4901.9586    60.262715 
  276500    307.02089   -4929.0821            0   -4902.1356    31.814738 
  276600    300.85277   -4928.5468            0   -4902.1417   -34.977198 
  276700    299.51086   -4928.4265            0   -4902.1391    112.94425 
  276800     286.3699   -4927.1945            0   -4902.0605    27.359745 
  276900     303.3381   -4928.6552            0   -4902.0319    -52.87553 
  277000    304.07185   -4928.7919            0   -4902.1042    5.8433715 
  277100    309.99341   -4929.1636            0   -4901.9563   -82.446721 
  277200    296.92746   -4927.8419            0   -4901.7813   -133.22014 
  277300    301.11566    -4928.318            0   -4901.8898   -26.504292 
  277400    300.78659   -4928.2836            0   -4901.8843    6.0372159 
  277500    307.04509   -4928.6565            0   -4901.7078    -130.0901 
  277600    303.66396    -4928.662            0   -4902.0102   -20.126988 
  277700    309.17463   -4929.3577            0   -4902.2222   -27.856827 
  277800    315.30568   -4929.8717            0   -4902.1981   -103.62697 
  277900    303.23771   -4928.7126            0   -4902.0981    112.15757 
  278000    296.25301   -4927.7448            0   -4901.7433    162.41092 
  278100    303.55155   -4928.4244            0   -4901.7824    26.932886 
  278200    304.67005   -4928.6202            0     -4901.88    25.705537 
  278300    300.19599    -4928.294            0   -4901.9465    71.888558 
  278400     300.9245   -4928.3016            0   -4901.8901    -68.97309 
  278500    296.42517   -4927.7131            0   -4901.6966    97.396495 
  278600    300.91873   -4927.9508            0   -4901.5398    39.565654 
  278700    298.65997   -4928.1539            0   -4901.9412   -54.658261 
  278800    290.35359   -4927.1279            0   -4901.6443   -75.529696 
  278900    288.47085   -4927.0697            0   -4901.7513   -56.277165 
  279000    303.19625   -4928.4754            0   -4901.8646   -82.353753 
  279100    297.60226   -4928.0808            0   -4901.9609  -0.12167428 
  279200    289.29181   -4926.9719            0   -4901.5814    130.14728 
  279300    302.32933   -4928.3634            0   -4901.8287   -88.140473 
  279400    295.21118   -4927.5774            0   -4901.6674   -35.523603 
  279500    299.57941    -4927.836            0   -4901.5426   -10.750766 
  279600    299.84275   -4927.9217            0   -4901.6052   -163.58811 
  279700    307.77053   -4928.6832            0   -4901.6709    77.378688 
  279800     296.5862   -4927.8387            0    -4901.808    69.331667 
  279900    312.27897   -4929.1982            0   -4901.7902   -65.129207 
  280000    296.47169   -4928.0631            0   -4902.0424    18.447362 
  280100    305.00442   -4928.8328            0   -4902.0633    71.077635 
  280200    288.09913   -4926.9245            0   -4901.6387   -139.77737 
  280300    303.26954   -4928.7783            0   -4902.1611    51.856731 
  280400    299.37801   -4928.0058            0   -4901.7301    106.48614 
  280500    301.73355   -4928.3096            0   -4901.8271   -107.13891 
  280600    305.66591   -4928.6212            0   -4901.7936   -42.939602 
  280700    300.23141   -4928.1034            0   -4901.7528    27.341932 
  280800    295.52485   -4927.8861            0   -4901.9485   -38.704877 
  280900    292.78628   -4927.2582            0    -4901.561   -95.912905 
  281000    297.91083   -4927.8099            0    -4901.663    6.6329561 
  281100    292.04196   -4927.1519            0   -4901.5201   -72.428288 
  281200    284.65078    -4926.588            0   -4901.6048   -106.44071 
  281300    299.93627   -4927.8802            0   -4901.5555     28.02518 
  281400    288.60795    -4927.102            0   -4901.7716    -48.87241 
  281500     296.1318   -4927.9749            0   -4901.9841   -37.474791 
  281600    297.98152   -4927.8583            0   -4901.7051    45.125886 
  281700    297.34835   -4927.8634            0   -4901.7658    105.30644 
  281800    302.73131   -4928.5123            0   -4901.9423   -19.193607 
  281900    308.17298   -4928.8654            0   -4901.8178    30.794015 
  282000    296.81329   -4927.9698            0   -4901.9192   -60.320342 
  282100     307.4387   -4928.8594            0   -4901.8763   -102.49605 
  282200     295.4365   -4927.6003            0   -4901.6705   -54.539532 
  282300    291.54336   -4927.4437            0   -4901.8556    46.017465 
  282400    299.01859   -4927.7422            0    -4901.498    63.798333 
  282500    293.80947   -4927.6276            0   -4901.8406     96.18239 
  282600    296.73166   -4927.7599            0   -4901.7164    13.117222 
  282700    305.00497   -4928.3248            0   -4901.5552   -168.60131 
  282800     313.5515   -4929.5519            0   -4902.0322    45.533156 
  282900    294.04076   -4927.6105            0   -4901.8033    36.456405 
  283000     302.4148   -4928.6153            0   -4902.0731    49.897027 
  283100    290.17817   -4927.5543            0    -4902.086    18.406411 
  283200    306.56378   -4929.0049            0   -4902.0985   -124.61652 
  283300    292.69439   -4927.8404            0   -4902.1513   -143.11846 
  283400    304.03749   -4928.7877            0    -4902.103     21.24892 
  283500    307.59303   -4929.2602            0   -4902.2635     57.68533 
  283600     301.9139   -4928.3129            0   -4901.8146    20.232301 
  283700     294.9503   -4927.8913            0   -4902.0042    33.966812 
  283800    300.31075   -4928.3245            0    -4901.967    -17.05501 
  283900     305.9856   -4928.7143            0   -4901.8586   -98.982753 
  284000    299.09232   -4928.3321            0   -4902.0815    -137.7855 
  284100    297.01094   -4927.7236            0   -4901.6556    5.3505688 
  284200    302.87922   -4928.1881            0   -4901.6051   -25.745957 
  284300    291.32682   -4927.2651            0   -4901.6961    187.15313 
  284400    310.43304    -4929.047            0    -4901.801   -26.668372 
  284500    305.72029   -4928.6842            0   -4901.8519   -48.127343 
  284600    304.65189   -4928.6652            0   -4901.9266    25.322114 
  284700    300.52811   -4928.5152            0   -4902.1386   -15.756983 
  284800    305.79407   -4928.9779            0    -4902.139    114.12863 
  284900     287.7741   -4927.3008            0   -4902.0436    50.309829 
  285000    291.89941   -4927.6022            0   -4901.9829   -42.870172 
Loop time of 791.838 on 2 procs for 280000 steps with 700 atoms

Performance: 15.276 ns/day, 1.571 hours/ns, 353.608 timesteps/s
100.0% CPU use with 2 MPI tasks x 1 OpenMP threads

MPI task timing breakdown:
Section |  min time  |  avg time  |  max time  |%varavg| %total
---------------------------------------------------------------
Pair    | 284.95     | 536.33     | 787.72     |1085.5 | 67.73
Bond    | 0.012457   | 0.014091   | 0.015725   |   1.4 |  0.00
Neigh   | 0.1785     | 0.18336    | 0.18821    |   1.1 |  0.02
Comm    | 1.2818     | 252.68     | 504.08     |1581.5 | 31.91
Output  | 0.050594   | 0.056878   | 0.063162   |   2.6 |  0.01
Modify  | 2.1838     | 2.2141     | 2.2444     |   2.0 |  0.28
Other   |            | 0.3572     |            |       |  0.05

Nlocal:        350.000 ave         360 max         340 min
Histogram: 1 0 0 0 0 0 0 0 0 1
Nghost:        177.000 ave         224 max         130 min
Histogram: 1 0 0 0 0 0 0 0 0 1
Neighs:         0.00000 ave           0 max           0 min
Histogram: 2 0 0 0 0 0 0 0 0 0
FullNghs:      51059.0 ave       54542 max       47576 min
Histogram: 1 0 0 0 0 0 0 0 0 1

Total # of neighbors = 102118
Ave neighs/atom = 145.88286
Ave special neighs/atom = 0.0000000
Neighbor list builds = 293
Dangerous builds = 0
Total wall time: 0:13:24
