LAMMPS (29 Sep 2021 - Update 2)
OMP_NUM_THREADS environment is not set. Defaulting to 1 thread. (src/comm.cpp:98)
  using 1 OpenMP thread(s) per MPI task
# ethanol at a nacl surface
# variables
variable pre equal 1 # desired pressure (Atm)
variable tem equal 300 # desired temperature (K)
variable k1 equal 0.5 # spring constant
variable k2 equal 5 # spring constant
# main parameters
units real # style of units (A, fs, Kcal/mol)
atom_style full # molecular + charge
bond_style harmonic
angle_style harmonic
dihedral_style harmonic
boundary p p p # periodic boundary conditions
pair_style lj/cut/coul/long 10 # cut-off 1 nm
kspace_style pppm 1.0e-4
pair_modify mix arithmetic tail yes # eij = sqrt(ei*ej), dij = 0.5*(di+dj)
# import positions and parameters
read_data eq.data
Reading data file ...
  orthogonal box = (-13.809794 -13.794338 -25.680000) to (13.809794 13.794338 25.680000)
  1 by 1 by 2 MPI processor grid
  reading atoms ...
  490 atoms
  reading velocities ...
  490 velocities
  scanning bonds ...
  3 = max bonds/atom
  scanning angles ...
  6 = max angles/atom
  scanning dihedrals ...
  9 = max dihedrals/atom
  reading bonds ...
  80 bonds
  reading angles ...
  130 angles
  reading dihedrals ...
  120 dihedrals
Finding 1-2 1-3 1-4 neighbors ...
  special bond factors lj:    0        0        0       
  special bond factors coul:  0        0        0       
     4 = max # of 1-2 neighbors
     4 = max # of 1-3 neighbors
     7 = max # of 1-4 neighbors
     8 = max # of special neighbors
  special bonds CPU = 0.000 seconds
  read_data CPU = 0.002 seconds
include PARM.lammps
# mass parameters
mass 1 22.99000
mass 2 35.45000
mass 3 12.011
mass 4 1.008
mass 5 1.008
mass 6 12.011
mass 7 15.9994
# pair coeffs
pair_coeff 1 1 0.0552 2.31
pair_coeff 2 2 0.1004 4.3
pair_coeff 3 3 0.0663 3.5812
pair_coeff 4 4 0.0281 2.3734
pair_coeff 5 5 0.0000 0.0000
pair_coeff 6 6 0.2450 2.8114
pair_coeff 7 7 0.1195 3.1000
# bond coeffs
bond_coeff 1 349.274 1.0900
bond_coeff 2 399.792 1.4300
bond_coeff 3 299.844 1.5200
bond_coeff 4 349.928 1.1000
bond_coeff 5 442.161 0.9720
# angle coeffs
angle_coeff 1 47.694 109.500
angle_coeff 2 55.127 109.500
angle_coeff 3 55.114 111.000
angle_coeff 4 52.477 107.570
angle_coeff 5 47.502 108.530
angle_coeff 6 54.993 110.300
# dihedral coeffs
dihedral_coeff 1 0.30115 1 3
dihedral_coeff 2 1.415 1 3
dihedral_coeff 3 0.0 1 1
# groups # descriptions
group nacl type 1 2 # nacl wall
400 atoms in group nacl
group eth type 3 4 5 6 7 # ethanol molecules
90 atoms in group eth
group oxy type 7 # ethanol molecules
10 atoms in group oxy
group mol2 molecule 2
9 atoms in group mol2
group topull intersect mol2 oxy
1 atoms in group topull
# dynamics
timestep 1 # (fs)
fix mynve all nve
fix mylgv all langevin ${tem} ${tem} 20 1530917
fix mylgv all langevin 300 ${tem} 20 1530917
fix mylgv all langevin 300 300 20 1530917
variable zini equal xcm(nacl,z)
fix mytth1 nacl spring tether ${k2} NULL NULL ${zini} 0
fix mytth1 nacl spring tether 5 NULL NULL ${zini} 0
fix mytth1 nacl spring tether 5 NULL NULL 25.6800263840784 0
# output
thermo 1000
dump dp1 all atom 50000 dump.lammpstrj
# run
variable zave equal xcm(topull,z)
variable cpt loop 24
label loop
variable zdes equal -20+0.5*(${cpt}-1)
variable zdes equal -20+0.5*(1-1)
fix mytth2 topull spring tether ${k1} 0 0 ${zdes} 0
fix mytth2 topull spring tether 0.5 0 0 ${zdes} 0
fix mytth2 topull spring tether 0.5 0 0 -20 0
run 50000
PPPM initialization ...
  using 12-bit tables for long-range coulomb (src/kspace.cpp:340)
  G vector (1/distance) = 0.26364888
  grid = 15 15 24
  stencil order = 5
  estimated absolute RMS force accuracy = 0.026549759
  estimated relative force accuracy = 7.9953811e-05
  using double precision FFTW3
  3d grid and FFT values/proc = 8228 2700
Neighbor list info ...
  update every 1 steps, delay 10 steps, check yes
  max neighbors/atom: 2000, page size: 100000
  master list distance cutoff = 12
  ghost atom cutoff = 12
  binsize = 6, bins = 5 5 9
  1 neighbor lists, perpetual/occasional/extra = 1 0 0
  (1) pair lj/cut/coul/long, perpetual
      attributes: half, newton on
      pair build: half/bin/newton
      stencil: half/bin/3d
      bin: standard
Per MPI rank memory allocation (min/avg/max) = 13.23 | 13.46 | 13.69 Mbytes
Step Temp E_pair E_mol TotEng Press 
       0    308.58754   -38623.062    61.644139   -38111.615   -175.92456 
    1000    292.45032   -38617.991     56.81292   -38134.898    70.567417 
    2000    300.80218   -38657.924    59.695202   -38159.775   -675.35106 
    3000    302.59368    -38684.92    61.348268   -38182.506   -344.71187 
    4000     316.4626   -38672.401    75.835284   -38135.285    -438.7504 
    5000    297.92049   -38672.226    73.399428   -38164.573   -687.16768 
    6000    307.89626   -38653.533    79.113028   -38125.626    130.97788 
    7000    289.27821   -38665.236    68.642901   -38174.937   -896.48604 
    8000    304.09218    -38684.24      78.4498   -38162.541   -64.395496 
    9000    294.27938   -38661.421    68.982898   -38163.492   -598.77446 
   10000    285.37238   -38672.671    58.714902   -38197.992   -227.65124 
   11000    293.71027   -38688.408    67.969196   -38192.322   -281.57321 
   12000    291.06695   -38669.392    68.967942    -38176.16   -112.50791 
   13000    284.74098   -38670.725     59.84581   -38195.836   -492.82467 
   14000    297.91986   -38670.584    57.756986   -38178.574   -250.37179 
   15000    297.55272   -38674.201    69.100688   -38171.383   -360.16287 
   16000    294.86242   -38642.452    74.140062   -38138.515   -293.95376 
   17000    310.03702   -38661.876    63.992354   -38145.969   -422.88172 
   18000    300.61086   -38663.759    62.488566   -38163.095   -300.05598 
   19000    298.14615   -38671.784     62.37497   -38174.826   -354.08365 
   20000    291.76648    -38653.71    57.804114   -38170.622    -614.0745 
   21000    290.06934   -38656.034    66.889547   -38166.334   -660.76265 
   22000    277.44765   -38631.541    68.132219   -38158.997   -665.15799 
   23000    310.29127   -38676.668    72.311316   -38152.071   -768.89535 
   24000    302.10927   -38654.549    61.096426   -38153.093   -613.51721 
   25000    289.58849   -38672.469    70.068454   -38180.292   -169.22813 
   26000    322.40884   -38665.086     67.80981   -38127.327    -130.7981 
   27000     293.8469   -38674.093    75.906083   -38169.871   -342.74653 
   28000    314.10961   -38673.619    73.942361   -38141.826    313.21457 
   29000    280.64374   -38670.427    63.400266   -38197.956   -295.99897 
   30000    323.51957   -38642.139    65.451112   -38105.121   -353.69405 
   31000    289.65901   -38666.888    72.727387   -38171.948    -462.6633 
   32000    293.01179   -38665.523    60.292245   -38178.132   -235.92967 
   33000    313.84878   -38689.451    69.166517   -38162.813   -189.36574 
   34000    281.19491   -38657.156    60.042446   -38187.239   -445.83685 
   35000     299.1598   -38677.434    68.781052   -38172.593   -448.57379 
   36000    299.72122   -38684.643    67.120625   -38180.644   -765.75617 
   37000    301.04423   -38652.991    64.882307   -38149.302   -79.525179 
   38000    301.50223   -38643.519    67.685196    -38136.36   -797.00419 
   39000    284.42265   -38674.029    69.697063   -38189.753    -656.9267 
   40000    302.14028   -38652.545    57.328393   -38154.812   -535.81275 
   41000    299.67589   -38652.545    66.195314   -38149.537   -371.89153 
   42000    313.31493   -38671.863    62.703956   -38152.467   -19.170556 
   43000    303.52857     -38663.5    70.337007   -38150.735    -375.6154 
   44000    280.52843   -38698.447    74.082719   -38215.461   -855.93269 
   45000    303.54912    -38668.77    79.201916    -38147.11   -552.89945 
   46000    305.03521   -38659.512     65.01574   -38149.872   -594.02599 
   47000    302.20853   -38672.174    68.562718   -38163.108   -1169.3236 
   48000    295.06655   -38699.681    59.313419   -38210.274   -603.60589 
   49000    302.61992   -38661.882    81.745795   -38139.033   -594.27847 
   50000    290.62515   -38656.219     59.74519   -38172.853   -359.43505 
Loop time of 21.701 on 2 procs for 50000 steps with 490 atoms

Performance: 199.069 ns/day, 0.121 hours/ns, 2304.038 timesteps/s
94.1% CPU use with 2 MPI tasks x 1 OpenMP threads

MPI task timing breakdown:
Section |  min time  |  avg time  |  max time  |%varavg| %total
---------------------------------------------------------------
Pair    | 6.8486     | 9.1851     | 11.522     |  77.1 | 42.33
Bond    | 0.071153   | 0.1579     | 0.24464    |  21.8 |  0.73
Kspace  | 8.2958     | 10.696     | 13.096     |  73.4 | 49.29
Neigh   | 0.26562    | 0.26627    | 0.26692    |   0.1 |  1.23
Comm    | 0.6772     | 0.79562    | 0.91404    |  13.3 |  3.67
Output  | 0.00088532 | 0.001057   | 0.0012287  |   0.5 |  0.00
Modify  | 0.5148     | 0.53386    | 0.55292    |   2.6 |  2.46
Other   |            | 0.06555    |            |       |  0.30

Nlocal:        245.000 ave         272 max         218 min
Histogram: 1 0 0 0 0 0 0 0 0 1
Nghost:        1357.00 ave        1384 max        1330 min
Histogram: 1 0 0 0 0 0 0 0 0 1
Neighs:        27171.0 ave       33933 max       20409 min
Histogram: 1 0 0 0 0 0 0 0 0 1

Total # of neighbors = 54342
Ave neighs/atom = 110.90204
Ave special neighs/atom = 1.3469388
Neighbor list builds = 663
Dangerous builds = 0
fix myat1 all ave/time 10 200 2000 v_zave v_zdes file position.${cpt}.dat
fix myat1 all ave/time 10 200 2000 v_zave v_zdes file position.1.dat
run 500000
PPPM initialization ...
  using 12-bit tables for long-range coulomb (src/kspace.cpp:340)
  G vector (1/distance) = 0.26364888
  grid = 15 15 24
  stencil order = 5
  estimated absolute RMS force accuracy = 0.026549759
  estimated relative force accuracy = 7.9953811e-05
  using double precision FFTW3
  3d grid and FFT values/proc = 8228 2700
Per MPI rank memory allocation (min/avg/max) = 13.23 | 13.46 | 13.69 Mbytes
Step Temp E_pair E_mol TotEng Press 
   50000    290.62515   -38656.219     59.74519   -38172.853   -359.43505 
   51000    307.03723   -38696.972    63.606245   -38185.823   -439.98354 
   52000    304.03621   -38673.184    66.209874   -38163.806     -775.825 
   53000    306.28977   -38691.048    68.896708   -38175.698   -239.10346 
   54000    290.45499   -38673.796    75.507277   -38174.917   -689.16596 
   55000    310.20998   -38657.406    64.495568   -38140.744    254.33702 
   56000    290.33821   -38680.478    64.089687   -38193.187   -18.145939 
   57000    306.56142   -38704.562     76.30775   -38181.405    -589.3177 
   58000    282.54326   -38657.226    59.569597   -38185.817   -455.21197 
   59000    305.91995   -38670.137    66.388437   -38157.834   -423.01445 
   60000    303.79878   -38659.041    53.488728   -38162.731    -367.4692 
   61000    293.93413   -38638.159    51.259941   -38158.456   -72.726021 
   62000    305.61961   -38647.164      60.3461   -38141.342    231.14991 
   63000    307.91513   -38682.512    68.247885   -38165.442   -422.79801 
   64000    305.26582   -38651.042    63.975638   -38142.106    34.937546 
   65000     294.5057   -38657.347    65.594727   -38162.476   -372.42014 
   66000    295.14921   -38637.495    68.564966   -38138.716    142.63931 
   67000    313.89331   -38620.603    63.448606   -38099.619   -325.54193 
   68000    329.87317   -38673.205    73.781487   -38118.595   -370.27603 
   69000    294.32698   -38690.664    66.466077   -38195.183    -403.5836 
   70000    301.17755   -38672.888    62.682937   -38171.204   -508.67697 
   71000    300.63521   -38673.739    66.871856   -38168.656   -325.05207 
   72000    311.74245   -38645.456    74.195843   -38116.859    359.84587 
   73000    305.71857   -38635.952    66.873119   -38123.458   -918.09713 
   74000    307.89598   -38627.736    57.271515    -38121.67   -548.51681 
   75000    310.27206   -38639.102    68.681721   -38118.162   -271.46598 
   76000    309.77038   -38658.678    69.044556   -38138.107   -831.45646 
   77000    310.01663   -38675.212    74.908386   -38148.418   -311.74891 
   78000    297.38191   -38673.347    77.567089   -38162.311   -288.59184 
   79000    322.44125   -38689.307    68.774276   -38150.537   -675.58648 
   80000     312.9486   -38671.831    52.347331   -38163.325    -266.4248 
   81000    294.31943   -38662.551    61.632189   -38171.914   -490.69808 
   82000    292.83471   -38642.018    74.329093   -38140.848   -316.29025 
   83000    311.86013   -38665.391    66.027871   -38144.791   -749.56494 
   84000     302.0945   -38679.596    61.789667   -38177.469   -379.02611 
   85000    307.52487   -38666.199    69.009315   -38148.937    -576.5202 
   86000    305.31555   -38674.653     55.53204   -38174.088   -232.38463 
   87000    295.84534   -38692.093     81.44194   -38179.422    9.8816046 
   88000    336.85258   -38659.622     63.04777   -38105.572    -161.8316 
   89000    306.38662   -38676.342    65.949302   -38163.798   -168.82308 
   90000    292.01046   -38649.928    75.545018   -38148.744   -39.238763 
   91000      310.837   -38662.116    71.439727   -38137.595   -853.90761 
   92000    311.57723   -38640.394    52.354167    -38133.88    44.574983 
   93000    301.38312   -38661.449    73.255905   -38148.892   -865.63962 
   94000     303.6226   -38667.206    55.987543   -38168.654   -508.51923 
   95000    302.01906    -38695.02    61.550395   -38193.242   -555.76987 
   96000    293.62958   -38686.426    63.305847   -38195.121   -250.44392 
   97000    298.08631   -38666.448    81.158827   -38150.793   -1349.6154 
   98000    309.22349   -38655.056    75.376172   -38128.951   -313.18029 
   99000    319.83115    -38639.67    55.299211    -38118.18   -809.39286 
  100000    290.73266   -38663.649     69.10668   -38170.766    -679.7365 
  101000    315.22172   -38633.096    56.955786   -38116.668    -151.2193 
  102000      294.228   -38652.475     68.71734   -38154.886   -672.11792 
  103000    304.49418   -38653.366    73.399361   -38136.131   -304.13086 
  104000    287.43777   -38661.833    70.537215   -38172.322   -628.08879 
  105000    293.89412   -38641.885    73.210248    -38140.29   -662.77276 
  106000    302.10154   -38666.129    69.392218   -38156.389   -540.21165 
  107000    296.72828   -38632.913    69.603561   -38130.793   -319.42387 
  108000    277.77264   -38637.243    61.176827   -38171.181   -868.87322 
  109000    309.23541     -38679.3    60.825234   -38167.729   -322.53087 
  110000     291.4055   -38679.383    62.444374   -38192.181   -8.7666332 
  111000    291.40355   -38646.637    69.655915   -38152.227   -587.77914 
  112000    300.95571   -38654.159    57.399846   -38158.081   -401.17822 
  113000     306.6359   -38673.749    70.386616   -38156.405   -533.21687 
  114000    289.39521   -38668.092    71.751605   -38174.514   -634.04847 
  115000    305.64176   -38634.683    56.304094   -38132.871   -466.70314 
  116000    295.05574   -38666.986    72.180338   -38164.728   -386.82775 
  117000    308.71794   -38625.872    71.308233   -38104.572    100.47754 
  118000    318.46563   -38659.882    66.803934   -38128.877   -148.06393 
  119000     309.6494   -38661.791    59.350364   -38151.091   -389.03016 
  120000    298.58366   -38690.733    56.903255    -38198.61     -188.865 
  121000    311.82274   -38649.157    66.530233   -38128.109   -142.22679 
  122000    299.04887   -38652.325    68.837789   -38147.589    -676.4397 
  123000    314.20902   -38651.571    71.308938   -38122.266   -337.39162 
  124000    306.64209   -38646.721    64.802326   -38134.952     82.96873 
  125000    299.79639   -38711.904    58.890084   -38216.026   -724.37975 
  126000    314.98427   -38676.667    55.984112   -38161.557   -776.08519 
  127000     301.5289   -38648.646    68.265273   -38140.867   -7.7744752 
  128000    317.38737   -38653.731    69.775262   -38121.327   -453.90025 
  129000    293.63608   -38660.088    60.731692   -38171.347    -1240.023 
  130000    289.29976   -38675.531     53.02423   -38200.819   -532.03719 
  131000     291.8175   -38654.068    66.834882   -38161.875    -589.8598 
  132000    294.06657   -38663.932    73.228801   -38162.067   -493.92212 
  133000     312.3807   -38629.521    79.196185   -38094.994   -849.14557 
  134000    302.66681   -38676.448    79.212733   -38156.063   -321.40621 
  135000    300.30112   -38666.797    76.241676   -38152.832   -497.91219 
  136000    282.59785    -38646.43    68.792167   -38165.719   -211.22553 
  137000    306.90888   -38669.902    64.321786   -38158.225   -89.921427 
  138000     307.1707   -38674.472    66.231692   -38160.503   -471.91777 
  139000    307.48849   -38658.219    63.599643   -38146.419   -977.52437 
  140000    289.83976    -38662.32     77.63023   -38162.215   -184.02187 
  141000    303.21184   -38658.998    64.005527   -38153.026    153.31915 
  142000    299.73505   -38684.257    60.883505   -38186.475   -207.62236 
  143000     298.5281   -38681.499    59.233256   -38187.127   -167.46953 
  144000    285.57499   -38653.418    77.359415     -38159.8   -375.61803 
  145000    279.96201   -38664.659    76.617418   -38179.964   -260.57663 
  146000    312.62401    -38698.51    64.731248   -38178.093   -102.89406 
  147000    281.44473     -38683.6    76.960314   -38196.402   -482.13674 
  148000     296.1884   -38670.917     60.36886   -38178.819    -456.3101 
  149000    287.24819   -38687.442    60.882237   -38207.862    -415.3352 
  150000    310.36558   -38643.756    56.419305   -38134.943    -20.54668 
  151000    297.90511    -38670.84    61.491523   -38175.117   -139.30579 
  152000    303.53913   -38666.137    69.759268   -38153.934   -372.77615 
  153000    286.57015   -38659.768    68.208876    -38173.85   -219.45092 
  154000     295.4233   -38678.372    66.591677   -38181.166   -601.14626 
  155000    281.73765   -38657.795    57.848435   -38189.281   -428.59443 
  156000    290.56417   -38678.103    63.529123   -38191.043   -357.47336 
  157000    308.94292   -38651.932     57.90654   -38143.705    152.63768 
  158000    321.72895   -38684.337    55.257595   -38160.122   -87.298377 
  159000    304.78552   -38689.278    64.038079    -38180.98   -687.92629 
  160000     322.9046   -38647.282     68.26647   -38108.345   -76.577484 
  161000    287.64167   -38679.483    71.105855   -38189.106   -356.83548 
  162000    280.70407   -38658.984     73.25549    -38176.57   -174.19505 
  163000    307.00938   -38669.652    59.019252   -38163.131   -130.43581 
  164000    295.09423   -38674.758    65.242583   -38179.381   -244.19672 
  165000    303.64786   -38671.563    64.634412   -38164.326   -380.24492 
  166000    313.58631   -38644.744    66.538124   -38121.117   -301.07324 
  167000     303.0905   -38692.644    71.902313   -38178.952    -324.1713 
  168000    294.46214   -38653.091    63.667071   -38160.211   -356.31454 
  169000    304.29504   -38690.798    60.797085   -38186.456   -632.13534 
  170000    292.42189   -38664.778    61.207015   -38177.332   -432.64017 
  171000    283.89477   -38671.752    65.092268    -38192.85   -504.51407 
  172000    312.02206   -38668.317    59.952212   -38153.556   -371.50198 
  173000    301.00704   -38682.201    68.334711   -38175.113   -223.17332 
  174000    298.67025   -38682.003    61.671333   -38184.985   -697.02544 
  175000    297.33474   -38649.549    63.236937   -38152.913   -383.68745 
  176000    299.76133    -38648.32    64.248255   -38147.135   -250.26786 
  177000    311.68041    -38655.37    59.553676   -38141.506   -680.06539 
  178000    296.07842   -38666.515    66.152216   -38168.795   -774.77934 
  179000    310.66635    -38663.52    77.812338   -38132.875   -773.88942 
  180000     303.2132   -38676.462    75.306267   -38159.187    -453.8886 
  181000    329.17608   -38676.431    65.585382   -38131.033   -658.86243 
  182000    301.68582   -38636.159    66.871086   -38129.546   -428.20971 
  183000    281.79218    -38669.68    73.392518   -38185.543   -686.30321 
  184000    290.78417   -38668.912    62.969054   -38182.091    -254.9326 
  185000    299.75576   -38673.658    72.982355   -38163.747   -386.98753 
  186000    290.93437   -38683.384    68.002958    -38191.31   -434.29376 
  187000    297.63791   -38667.865    67.597025   -38166.426   -48.021594 
  188000    291.87094   -38653.813    63.385547   -38164.992   -180.07443 
  189000    293.67406   -38667.398    78.071313   -38161.263   -445.52461 
  190000    300.60446   -38678.011    73.050393   -38166.794   -193.03207 
  191000    298.69348   -38659.373    76.047278   -38147.945    86.728256 
  192000    303.32988   -38670.416    72.681753   -38155.596   -110.00886 
  193000    303.35607   -38677.063    64.242868   -38170.643    -677.2872 
  194000    308.40412   -38678.177    70.228324   -38158.414   -1002.0405 
  195000    288.84057   -38652.798    71.369833    -38160.41   -698.62513 
  196000    290.43075    -38661.64    69.168044   -38169.135   -324.71345 
  197000    289.57131   -38667.251    60.543136   -38184.624   -722.92908 
  198000    304.01358   -38674.897    68.124589   -38163.637   -601.23589 
  199000    287.11106   -38634.294    70.375394   -38145.421   -584.78661 
  200000    285.89857   -38670.284    76.719653   -38176.834   -405.68515 
  201000    295.29188   -38657.434    64.677925   -38162.334    -563.3581 
  202000    310.30447   -38673.096    78.616419   -38142.174   -359.83007 
  203000    317.48006   -38648.535    62.536794   -38123.234   -385.05862 
  204000    310.94833   -38659.781    72.542976   -38133.995    -330.1818 
  205000    290.08595   -38645.822    60.177804   -38162.811   -586.30476 
  206000    314.82811   -38692.356    70.072471   -38163.385   -223.20765 
  207000    282.75909   -38701.697    59.256436   -38230.287   -277.84026 
  208000    289.98827   -38623.012    60.618867   -38139.702    -249.4174 
  209000    301.36404   -38661.592    69.332142   -38152.986   -360.55825 
  210000    295.56735   -38650.938    54.652956   -38165.461    158.39745 
  211000    316.79181   -38692.271    57.239906   -38173.271   -711.49282 
  212000     319.6808   -38650.508    62.891697   -38121.644   -561.12617 
  213000    310.85744   -38686.978    65.054659   -38168.812    39.192089 
  214000    302.72304   -38671.032    60.030424   -38169.748   -675.13933 
  215000    291.61051   -38640.011    56.760084   -38158.194   -376.54557 
  216000    294.06071   -38663.739    63.468938   -38171.642   -245.54155 
  217000     313.3167   -38645.855    67.456316   -38121.703   -749.78451 
  218000    293.45945   -38687.872    60.563678   -38199.557   -365.96468 
  219000    292.37354   -38676.046    66.243688   -38183.634   -912.63203 
  220000    305.65909   -38646.024    69.170996    -38131.32   -367.02812 
  221000    311.03728   -38665.239    66.988423   -38144.878   -400.21095 
  222000     285.5616   -38662.429    69.584258   -38176.606   -300.98341 
  223000    317.97057   -38650.018    66.205939   -38120.333   -344.96859 
  224000    309.15141   -38667.507    77.200561   -38139.682   -637.54345 
  225000    289.91518   -38650.923    63.063167   -38165.274   -317.29887 
  226000    289.54664    -38692.13     78.82925   -38191.252    -731.0838 
  227000     319.6712   -38688.108    68.438948   -38153.711   -358.78922 
  228000     298.5966   -38672.178    81.047214   -38155.891   -541.50552 
  229000    307.68119   -38684.056    61.524712    -38174.05   -337.30118 
  230000    303.36476   -38665.729    65.172662   -38158.367    -196.1619 
  231000    316.80662   -38673.986    66.122497   -38146.081     -203.036 
  232000    302.53527   -38680.234    67.165184   -38172.088   -1081.5425 
  233000    299.88268   -38662.435    61.308007   -38164.013   -420.63321 
  234000    299.44632   -38674.555    48.669406   -38189.407   -474.04867 
  235000    310.65685   -38668.652    68.613844    -38147.22   -581.52435 
  236000    305.21129   -38640.269    69.513717   -38125.875   -376.91478 
  237000     295.9839   -38658.205    68.276897   -38158.498   -595.22291 
  238000    298.51334   -38651.369    65.304744   -38150.946   -514.65968 
  239000    308.07845   -38682.737    63.669515   -38170.008   -202.11021 
  240000    300.67082   -38669.678    80.996563   -38150.418   -376.49525 
  241000    342.78317   -38660.105     67.85829     -38092.6   -335.53794 
  242000    300.57318   -38646.366    66.287742   -38141.958    -67.25274 
  243000    299.27834   -38650.438    67.841188   -38146.364   -593.62414 
  244000    302.24146   -38664.691    67.652113   -38156.487     -516.651 
  245000    306.29929   -38676.023    59.046365    -38170.51   -446.89939 
  246000    297.05206   -38663.964    73.420738   -38157.555    -344.8504 
  247000    284.57394   -38664.658    83.896736   -38165.962   -650.30393 
  248000     311.8224   -38668.588    70.772286   -38143.299   -75.214841 
  249000    302.67671   -38686.971    72.725367   -38173.059   -833.54256 
  250000    310.17952   -38675.276     78.05461   -38145.099   -202.85366 
  251000    306.61728   -38694.582    66.420036   -38181.232   -347.54214 
  252000    296.60685   -38680.651    73.168713   -38175.143   -714.61007 
  253000    295.56615   -38697.222    65.754538   -38200.646   -722.97699 
  254000      305.347   -38679.903    72.158561   -38162.665   -198.08191 
  255000    304.92088   -38658.237    80.259036   -38133.521   -336.92122 
  256000    313.09064   -38659.605    58.013245   -38145.226      42.8476 
  257000    323.19911   -38680.393    58.971237   -38150.322   -460.63559 
  258000    301.39592   -38679.488    61.256009   -38178.913   -386.38186 
  259000    292.41501   -38663.825    64.331198   -38173.265     75.41321 
  260000    313.86629   -38654.362    53.249266   -38143.616   -359.22235 
  261000    316.09132   -38678.179     61.85679   -38155.583   -455.18444 
  262000    298.27744   -38641.186    67.798975   -38138.613   -267.56652 
  263000    289.41873   -38642.527    59.040195   -38161.625    9.2391121 
  264000    307.89861   -38629.697    67.764447   -38113.135   -32.789217 
  265000    283.29371   -38673.987    66.877575   -38194.176   -642.64701 
  266000     296.0095   -38662.404    57.071364   -38173.865   -115.29759 
  267000    288.28279   -38648.707    68.528133   -38159.974   -594.78965 
  268000    305.62693     -38651.5    58.301297   -38147.712    -503.4899 
  269000    299.28637   -38679.795     76.94741   -38166.603   -698.70885 
  270000    298.38102   -38655.707    74.524689   -38146.258   -422.36138 
  271000    301.73121   -38644.919    72.964062   -38132.146   -563.34959 
  272000    298.08712   -38685.787    57.982544   -38193.308   -638.40884 
  273000    317.86875   -38662.037    84.897434   -38113.809   -550.88377 
  274000     312.4297    -38690.21    69.923804   -38164.883   -735.35389 
  275000    309.26711   -38642.466    66.930978   -38124.742    52.808791 
  276000     307.5224   -38673.007    68.546881    -38156.21   -716.45342 
  277000    294.52533   -38653.411    64.599123   -38159.508   -214.42794 
  278000    323.55794   -38672.398    66.778905   -38133.996    -264.5445 
  279000    298.01906   -38685.856    62.455908   -38189.002   -1272.3463 
  280000    302.54347   -38677.945     62.62728   -38174.326   -271.22916 
  281000    297.48284   -38661.147    68.517666   -38159.013    -387.1003 
  282000    303.24881   -38681.322     81.99242   -38157.309   -578.96089 
  283000    280.36894   -38687.613        67.52   -38211.423   -429.59933 
  284000    306.79454    -38655.46    72.321293    -38135.95   -139.73763 
  285000    312.67115   -38646.399    63.799097   -38126.845    158.24308 
  286000    317.72812   -38645.927    69.753966   -38113.048   -433.57916 
  287000    300.85345   -38665.979    67.039662    -38160.41   -483.23232 
  288000    313.07744   -38687.993    61.611804   -38170.034   -403.90784 
  289000    314.08531   -38633.962    60.765623   -38115.381   -367.60602 
  290000     292.7209   -38678.389    59.971433   -38191.743    -1098.828 
  291000    307.73431   -38667.821    72.627401   -38146.635   -946.35247 
  292000    292.68743   -38656.716     64.51951   -38165.571   -410.44121 
  293000    299.97198   -38672.335    68.872821   -38166.218   -662.80252 
  294000    299.12477   -38659.321    72.998063   -38150.314   -720.80659 
  295000    310.60499   -38645.465    69.764617   -38122.957   -626.94842 
  296000     310.6783   -38692.274    60.116751   -38179.307   -235.23087 
  297000    306.51356   -38676.247    60.811186   -38168.657   -92.064078 
  298000     300.0808   -38678.308    69.031911   -38171.873   -572.64071 
  299000    306.21085   -38658.842    55.564546    -38156.94   -525.29478 
  300000    311.90676   -38656.885    60.455114    -38141.79   -266.26327 
  301000    300.61013   -38662.313    71.142378   -38152.996   -62.185768 
  302000    310.18069   -38669.784    62.864659   -38154.795   -256.36418 
  303000    318.73422   -38694.637    71.838225   -38158.207   -213.17272 
  304000    279.68041   -38687.693    72.841529   -38207.184   -136.91369 
  305000    307.34205   -38659.562    62.526712   -38149.048   -496.94813 
  306000     296.8794   -38668.699    75.173009    -38160.79   -871.97809 
  307000    298.80617   -38635.877    56.613898   -38143.719   -773.08912 
  308000    282.97555   -38686.601    63.753806   -38210.377   -285.23709 
  309000     288.7625   -38678.097    76.715054   -38180.477    -543.2696 
  310000    306.65168   -38638.628    70.956384   -38120.692   -981.49383 
  311000    321.91544   -38641.614    79.648906   -38092.736   -427.18455 
  312000    293.91481   -38665.167     73.23916   -38163.513   -277.52002 
  313000    300.99743   -38683.364    84.699278   -38159.926    -529.8765 
  314000     323.2868   -38699.895    74.729121   -38153.938   -728.93342 
  315000     321.5266   -38692.717    65.593035   -38158.461   -620.79012 
  316000    300.01666   -38665.986    80.107179   -38148.569   -293.39038 
  317000    286.81388    -38672.66    68.504825   -38186.091   -575.41258 
  318000    300.13147   -38694.238     51.88523   -38204.877   -351.30458 
  319000    278.45904   -38690.508     84.67801   -38199.943    -485.5438 
  320000    315.00461   -38637.803    73.826329   -38104.821   -247.95721 
  321000     300.6179   -38694.358    62.579775   -38193.592   -407.63848 
  322000    299.49559   -38702.542    69.872548    -38196.12   -229.33361 
  323000    305.17429    -38663.73    68.063136    -38150.84   -994.94475 
  324000    280.23646   -38647.716    67.603177   -38171.636   -610.37923 
  325000    316.81352   -38685.643    56.989383   -38166.861   -620.20034 
  326000    303.73804   -38660.994    60.671808   -38157.588   -104.51489 
  327000    333.61192   -38672.265    59.706635   -38126.281   -331.18603 
  328000    288.83153    -38675.65    75.769273   -38178.875   -590.90994 
  329000    300.57485   -38674.887    62.014783   -38174.749    45.463574 
  330000    298.54243   -38662.748    77.158127    -38150.43   -469.37656 
  331000    318.57439   -38685.159    61.114471   -38159.685   -111.91813 
  332000    301.00034   -38660.076     74.52056   -38146.812   -625.38985 
  333000    288.04545   -38663.711    78.384343   -38165.467   -374.68435 
  334000    293.97551   -38658.845    69.642089     -38160.7   -344.37551 
  335000     312.3987   -38673.373    60.204948   -38157.811   -316.33141 
  336000    312.20303   -38677.033    62.719489   -38159.242    53.423876 
  337000    324.84727   -38644.354    73.284802   -38097.566   -368.66024 
  338000    294.45215   -38690.556    68.567549    -38192.79   -328.75121 
  339000     298.0343   -38660.236    68.034115   -38157.782   -944.18361 
  340000    310.98269   -38675.751    59.627831    -38162.83   -142.04636 
  341000    307.17822   -38653.847    69.605376   -38136.494   -184.91852 
  342000    325.59052   -38666.042    60.377379   -38131.079   -379.66116 
  343000      310.196   -38654.881    69.095568   -38133.639   -52.187579 
  344000    313.39429   -38652.435    70.256104   -38125.371   -74.948664 
  345000    315.57336   -38660.853     62.77959   -38138.088   -355.29916 
  346000     299.2178   -38676.696     66.83705   -38173.714   -457.93364 
  347000    301.23294   -38652.155    58.779339   -38154.293   -193.70042 
  348000     318.2702   -38682.958    76.434203   -38142.608    -366.6755 
  349000    285.31751   -38677.373    65.253647   -38196.236   -707.32276 
  350000    296.80604   -38662.439    66.798282   -38163.012   -299.49146 
  351000    300.62175   -38691.048    73.736007   -38179.121   -780.72193 
  352000    285.08427   -38635.375    67.982759   -38151.849   -451.03001 
  353000    294.76581   -38666.907    62.484452   -38174.767    32.343901 
  354000     302.6546   -38656.551    65.397166       -38150   -510.48344 
  355000     301.2489   -38668.543    71.038396   -38158.399   -106.76309 
  356000      313.705   -38641.696    59.876283   -38124.558   -83.326107 
  357000    296.63189   -38697.136    66.840722    -38197.92   -275.49016 
  358000    291.17296   -38682.518    61.726515   -38196.373   -528.63302 
  359000    316.80069    -38681.34    62.665838     -38156.9   -146.65425 
  360000    301.65699   -38665.148    72.475714   -38152.973   -446.23115 
  361000    288.27783    -38662.05    68.316371   -38173.535   -433.00351 
  362000    320.07631   -38658.368    74.192373   -38117.627   -344.29417 
  363000    297.16355   -38701.787    63.920079   -38204.717   -609.30281 
  364000    290.01535   -38690.388    64.028315   -38203.629   -676.30374 
  365000    283.14703   -38674.977    58.658055   -38203.599   -432.85495 
  366000    327.79819   -38641.003    71.021657   -38092.177    36.562547 
  367000    288.22077   -38681.071    61.271684   -38199.684   -398.52069 
  368000    287.23774    -38669.48    66.613167   -38184.185   -131.51774 
  369000    317.30931   -38650.924    70.187435   -38118.222   -42.913182 
  370000    285.38905   -38649.469     60.91839   -38172.563   -278.08176 
  371000    306.78727   -38644.056    63.486469   -38133.392   -93.721373 
  372000    331.56684   -38683.528    79.281382   -38120.949   -789.21211 
  373000    287.61322   -38670.375    73.839955   -38177.305   -256.71703 
  374000    294.66759   -38654.821    58.835627   -38166.474   -449.13249 
  375000    310.50678   -38674.061    62.703978   -38158.758   -399.72299 
  376000     309.3051   -38702.612    66.514736   -38185.249    -525.0833 
  377000    286.23506   -38662.151     66.60479   -38178.326    221.78998 
  378000    288.79699   -38678.335    82.064221   -38175.316   -881.31474 
  379000    282.11247   -38677.167    69.894045   -38196.061   -621.16065 
  380000    301.48525   -38652.189    57.902877   -38154.837    -9.210893 
  381000     306.9527   -38689.529    73.055817   -38169.054   -477.86566 
  382000    302.87439   -38657.027    64.506981   -38151.045   -208.49533 
  383000    321.28081    -38655.32    57.304334   -38129.711   -403.46058 
  384000    296.92481   -38663.411    66.208239     -38164.4   -312.27685 
  385000     305.1485   -38655.752    75.239262   -38135.724   -317.92482 
  386000    304.38076   -38649.701    56.944808   -38149.086   -280.98854 
  387000    295.32043   -38667.638    57.171873   -38180.002    -546.1637 
  388000    276.04537    -38671.59    61.713397   -38207.508   -175.41343 
  389000    298.20698    -38681.69    64.628312    -38182.39    261.76711 
  390000    326.23284   -38672.803    66.897626   -38130.383   -312.95443 
  391000    291.97561   -38675.136     62.40144   -38187.146    -551.4927 
  392000    309.45984   -38674.754    62.428721   -38161.251   -244.86983 
  393000    291.94047   -38666.016    58.451453   -38182.027   -465.61748 
  394000    327.13815   -38649.748    55.770678   -38117.136    -325.1304 
  395000    292.25639   -38675.119    50.427384   -38198.694   -858.05842 
  396000    291.96687   -38652.379    63.341255   -38163.462   -493.01021 
  397000    297.69182   -38677.408    60.149246   -38183.339   -304.22783 
  398000     293.9651   -38690.301    66.403807   -38195.409   -776.69113 
  399000    298.40856   -38649.173    64.999811   -38149.208   -83.541681 
  400000    268.45551   -38657.309     71.23209   -38194.772   -381.60814 
  401000    296.47177    -38645.43    60.107502    -38153.18   -300.14335 
  402000    302.08492   -38685.031    60.061293   -38184.646   -318.69219 
  403000    296.86969   -38652.379    85.853534   -38133.804   -186.94977 
  404000    298.87211   -38668.701    69.819495   -38163.241   -318.88305 
  405000     286.0925   -38679.379    60.952472   -38201.414   -648.29236 
  406000    305.81676    -38655.34    62.959245   -38146.617   -83.208923 
  407000    290.66978   -38649.685    61.264162   -38164.736   -697.53947 
  408000    290.50591   -38679.499    64.211528   -38191.841    312.04941 
  409000    307.69539   -38654.408    74.995812    -38130.91   -496.37599 
  410000    302.48982   -38658.023    67.914622   -38149.195   -386.27575 
  411000    292.90232   -38652.128    58.435345   -38166.753   -614.78351 
  412000    317.22622   -38678.688     62.05341   -38154.241   -64.441835 
  413000    311.94354   -38660.402    62.536504   -38143.171    16.596244 
  414000    300.37033   -38677.519    68.500556   -38171.194   -55.103018 
  415000    307.04215   -38697.299    62.744016   -38187.005   -290.97472 
  416000     299.7021   -38638.101    53.966389   -38147.284   -204.46116 
  417000    300.58471   -38654.855    65.769385   -38150.949    -604.6608 
  418000    297.53633   -38663.823    63.087619   -38167.042   -658.80053 
  419000    303.46997   -38674.501    68.149987   -38164.009   -667.28993 
  420000    299.89327   -38652.435     73.85979   -38141.446   -261.58535 
  421000    304.58015   -38666.564    64.123032    -38158.48   -433.61665 
  422000    316.64458    -38673.22    64.346857   -38147.327   -584.56323 
  423000    277.01077   -38683.193    70.429346   -38208.988   -208.66953 
  424000    311.29596   -38680.909    58.598848    -38168.56   -344.92167 
  425000    308.60263   -38664.307    69.911562   -38144.571   -895.86244 
  426000    284.26694   -38643.508    63.249473   -38165.906   -845.93169 
  427000    299.43758   -38660.283    71.017514     -38152.8   -355.31572 
  428000    308.82132   -38663.055    58.359196   -38154.553   -397.85763 
  429000    322.49424   -38647.143    70.439121   -38106.631   -331.31657 
  430000    297.03336   -38638.951    72.095954   -38133.894   -727.79253 
  431000    314.94121   -38674.202    66.508384    -38148.63   -628.85183 
  432000    292.37125   -38661.866    57.459259   -38178.241   -380.94892 
  433000    300.20347   -38686.023    78.195673   -38170.246   -1043.2309 
  434000    307.93064   -38659.313    65.567309   -38144.901   -600.39648 
  435000     279.8343   -38672.665    50.345025   -38214.429   -307.18367 
  436000    298.58713   -38685.313    67.739643   -38182.348   -330.91013 
  437000    306.31356   -38689.624    65.526825    -38177.61   -230.09366 
  438000    316.47707   -38666.253     62.06473   -38142.887    275.63434 
  439000    292.21846   -38661.253    59.999486   -38175.311    123.41208 
  440000    290.99343   -38677.611     66.26485    -38187.19   -249.53866 
  441000    298.08619   -38688.869    59.446512   -38194.927   -553.31917 
  442000    299.06164   -38659.561    65.691983   -38157.952   -234.77452 
  443000    296.81027   -38678.519     70.12717   -38175.757    -1020.588 
  444000    306.15069   -38654.662    59.170171   -38149.241    43.877795 
  445000    293.24295   -38651.408    67.551188   -38156.421   -344.51342 
  446000    298.70277   -38692.364     75.63702   -38181.333   -449.02156 
  447000    293.26976   -38682.951    78.589889   -38176.886    -425.4857 
  448000    290.11215   -38658.616    69.278223   -38166.466   -277.66154 
  449000    296.88154   -38664.763    66.136288   -38165.888    -512.1615 
  450000    293.60248   -38669.667     64.79766   -38176.909   -270.19487 
  451000    301.76036    -38687.37    68.509689   -38179.009   -313.40683 
  452000    293.69727   -38652.153    68.744719    -38155.31    -333.2948 
  453000    288.99655   -38684.633    59.082636   -38204.305   -436.64076 
  454000    295.63836   -38668.266     61.46262   -38175.877   -770.05957 
  455000     283.9326   -38680.893    65.678192    -38201.35   -261.54168 
  456000    279.09402   -38671.556    60.508133   -38204.236   -510.84883 
  457000    324.48602   -38676.891    61.479958   -38142.435   -879.21426 
  458000    293.22179   -38685.968    65.343068    -38193.22    -378.4308 
  459000    282.12963   -38675.542    61.849979   -38202.455   -417.32987 
  460000    305.44868   -38673.656    59.469207    -38168.96   -227.24771 
  461000    275.50851   -38667.307     73.51034   -38192.211   -210.26361 
  462000    309.95265   -38684.445    86.145967   -38146.507   -356.42968 
  463000    296.40138   -38662.675    61.697585   -38168.938   -272.50798 
  464000    317.52148   -38666.625    74.142351   -38129.658   -368.21883 
  465000    295.74717   -38664.064    59.021042   -38173.957   -255.60193 
  466000    306.96054   -38702.372    52.839375   -38202.102   -746.31902 
  467000      301.451   -38652.562    79.808754   -38133.354   -699.81522 
  468000    290.82502    -38646.46    70.822429   -38151.727   -642.85668 
  469000     312.6952   -38672.811    56.835739   -38160.186   -594.64502 
  470000    306.53883   -38675.659    72.402023   -38156.441   -803.01833 
  471000     305.8199   -38670.159    59.742605   -38164.648   -563.58432 
  472000      305.869   -38652.762    57.587075   -38149.335    127.70539 
  473000     312.1495   -38657.175    76.397501   -38125.783   -623.11266 
  474000    302.30338   -38660.696    68.175769   -38151.878   -852.23428 
  475000    289.21243   -38681.661    58.188919   -38201.911   -284.81877 
  476000    303.41152   -38641.021    73.318785   -38125.444   -273.68458 
  477000    309.87856       -38672    59.120696   -38161.195    -709.4936 
  478000    292.42289   -38682.272    64.374687   -38191.657   -518.54979 
  479000    283.43868   -38667.286    62.290461   -38191.851    -574.8309 
  480000    314.80074    -38660.97    64.215988   -38137.895   -317.67724 
  481000    318.84627   -38665.168      60.0078   -38140.405    136.17461 
  482000    303.63953   -38649.459    72.039917   -38134.829   -568.20855 
  483000    298.01435   -38650.498    73.010934   -38143.096   -437.56788 
  484000    306.53205   -38662.537    70.219732   -38145.512   -371.04045 
  485000    284.18846   -38657.851    63.346134   -38180.267   -218.24988 
  486000    309.81766   -38678.269    73.272082   -38153.402   -37.178371 
  487000    302.75881   -38625.506    61.938378   -38122.261   -451.37785 
  488000    309.32145   -38667.729    59.739755   -38157.117   -755.65442 
  489000    329.53697    -38667.29    68.954919   -38117.997   -457.43754 
  490000    303.01507   -38687.198    84.079166   -38161.439   -744.86057 
  491000    290.60746   -38665.297    72.517004   -38169.186   -612.97224 
  492000    295.19632   -38623.087    63.248005   -38129.556   -216.61706 
  493000    305.64603   -38644.027    73.503955   -38125.008   -406.76256 
  494000    312.84812    -38656.75    69.052883   -38131.684   -876.25853 
  495000    282.95098   -38665.131    69.775444   -38182.921   -24.319293 
  496000    287.96309   -38688.999    65.732412   -38203.527   -572.24935 
  497000    307.23845   -38658.676    69.816273   -38141.024   -700.40481 
  498000    294.05964   -38677.021    58.546395   -38189.848   -131.92092 
  499000    301.19467   -38664.628    57.624552   -38167.977   -109.82805 
  500000    302.53329   -38619.426    79.921111   -38098.527   -230.24158 
  501000    298.04461   -38677.294    68.476526   -38174.383   -371.29223 
  502000    315.61654   -38687.647    56.943365   -38170.656    184.07027 
  503000    300.68866   -38655.601    60.359279   -38156.953   -478.80393 
  504000    289.79347   -38693.158    67.024749   -38203.726   -694.98883 
  505000    308.55183   -38656.794    65.616537   -38141.427   -161.30876 
  506000    288.20685   -38677.407    67.661577   -38189.651   -531.03553 
  507000     297.1724   -38663.484     70.35133   -38159.969   -1050.9444 
  508000    292.90286   -38654.901    80.753087   -38147.208   -425.57189 
  509000    290.75832   -38667.831    69.814212   -38174.202   -169.26042 
  510000    295.71365   -38654.986    66.428616    -38157.52   -144.29402 
  511000    298.72899   -38657.191    66.802426   -38154.956    -207.2037 
  512000    299.03431   -38658.226    56.111743   -38166.237   -613.45039 
  513000    315.08942    -38695.12    77.393583   -38158.447   -148.54029 
  514000    316.51013    -38664.04    69.200904   -38133.489   -1029.1833 
  515000    310.12568   -38653.243    77.638457   -38123.561   -46.489746 
  516000    301.17256   -38657.209    69.373329   -38148.842   -724.74775 
  517000     294.2359    -38648.63    62.585118   -38157.162   -643.87247 
  518000    291.08047   -38680.919     62.56298   -38194.073   -632.59089 
  519000     292.7326   -38652.857    59.773531   -38166.391   -463.18729 
  520000    319.41064   -38658.071    72.230129   -38120.263   -344.75333 
  521000    302.95291   -38661.295    70.581776   -38149.125   -142.82303 
  522000    301.37285   -38634.625    64.671035   -38130.669   -556.70389 
  523000    306.60355   -38702.019     71.44224   -38183.667   -369.40196 
  524000    289.13052   -38677.731    68.715149   -38187.574   -322.86714 
  525000    300.46064   -38693.075    76.480821   -38178.638    189.93097 
  526000    318.93143   -38664.484    81.435901   -38118.168   -181.63216 
  527000    297.21156   -38700.555    63.776733   -38203.558   -224.60956 
  528000    321.78142   -38672.332      59.5572   -38143.741   -102.40659 
  529000    296.17309   -38665.353    63.751218   -38169.895   -88.631021 
  530000    310.46137   -38677.526    63.690583   -38161.302   -365.94918 
  531000     296.6225   -38678.151    64.939213    -38180.85   -160.12133 
  532000    293.81619   -38663.006    57.323294   -38177.412    11.217129 
  533000    307.71935   -38673.137    65.844925   -38158.756   -877.76015 
  534000    292.85659   -38659.585    68.111213   -38164.601   -276.83642 
  535000    301.59299   -38662.512    68.903879   -38154.002    342.29124 
  536000    300.72095   -38673.642    71.178698   -38164.128   -926.66124 
  537000    294.88423   -38682.856    63.410388   -38189.618   -444.20388 
  538000    289.28693   -38679.152    67.649687   -38189.833   -441.86849 
  539000    311.08599   -38630.182    66.224129   -38110.514    -439.1431 
  540000    304.42634   -38679.655    78.293803   -38157.624   -217.54021 
  541000    292.74778   -38682.652    76.837247   -38179.101   -276.54815 
  542000    288.03826   -38654.769    70.529021   -38164.391   -363.15577 
  543000    304.35627   -38669.449    76.504625    -38149.31   -820.51259 
  544000    298.71255   -38667.336    72.267868    -38159.66   -430.35366 
  545000    287.62441   -38645.253    72.743524   -38153.264   -392.45166 
  546000    313.21328   -38653.641    56.458878   -38140.637   -407.00279 
  547000     300.6228   -38650.776    68.203636    -38144.38   -698.52829 
  548000    296.59594   -38667.434    67.045145   -38168.065   -569.34709 
  549000    310.76403   -38669.453    70.666714   -38145.812    -312.0107 
  550000    318.16081   -38691.921    68.598336   -38159.566   -406.00669 
Loop time of 226.261 on 2 procs for 500000 steps with 490 atoms

Performance: 190.930 ns/day, 0.126 hours/ns, 2209.834 timesteps/s
93.8% CPU use with 2 MPI tasks x 1 OpenMP threads

MPI task timing breakdown:
Section |  min time  |  avg time  |  max time  |%varavg| %total
---------------------------------------------------------------
Pair    | 70.813     | 95.035     | 119.26     | 248.5 | 42.00
Bond    | 0.75316    | 1.6627     | 2.5723     |  70.5 |  0.73
Kspace  | 86.957     | 111.84     | 136.72     | 235.3 | 49.43
Neigh   | 2.8269     | 2.8339     | 2.8408     |   0.4 |  1.25
Comm    | 7.1555     | 8.393      | 9.6304     |  42.7 |  3.71
Output  | 0.011766   | 0.016019   | 0.020272   |   3.4 |  0.01
Modify  | 5.6035     | 5.7972     | 5.991      |   8.0 |  2.56
Other   |            | 0.6832     |            |       |  0.30

Nlocal:        245.000 ave         272 max         218 min
Histogram: 1 0 0 0 0 0 0 0 0 1
Nghost:        1348.00 ave        1375 max        1321 min
Histogram: 1 0 0 0 0 0 0 0 0 1
Neighs:        27008.0 ave       33663 max       20353 min
Histogram: 1 0 0 0 0 0 0 0 0 1

Total # of neighbors = 54016
Ave neighs/atom = 110.23673
Ave special neighs/atom = 1.3469388
Neighbor list builds = 6776
Dangerous builds = 0
unfix myat1
next cpt
jump SELF loop
variable zdes equal -20+0.5*(${cpt}-1)
variable zdes equal -20+0.5*(2-1)
fix mytth2 topull spring tether ${k1} 0 0 ${zdes} 0
fix mytth2 topull spring tether 0.5 0 0 ${zdes} 0
fix mytth2 topull spring tether 0.5 0 0 -19.5 0
run 50000
PPPM initialization ...
  using 12-bit tables for long-range coulomb (src/kspace.cpp:340)
  G vector (1/distance) = 0.26364888
  grid = 15 15 24
  stencil order = 5
  estimated absolute RMS force accuracy = 0.026549759
  estimated relative force accuracy = 7.9953811e-05
  using double precision FFTW3
  3d grid and FFT values/proc = 8228 2700
Per MPI rank memory allocation (min/avg/max) = 13.23 | 13.46 | 13.69 Mbytes
Step Temp E_pair E_mol TotEng Press 
  550000    318.16081   -38691.921    68.598336   -38159.566   -406.00669 
  551000    297.20924   -38672.735    67.914348   -38171.603   -653.31984 
  552000    292.61659   -38639.776    77.275987   -38135.977   -438.42651 
  553000    297.49329   -38651.912    63.717704   -38154.564   -87.969456 
  554000    313.20185   -38645.405    70.329813   -38118.547    20.928874 
  555000     286.3493   -38681.194    74.608372   -38189.198   -663.58866 
  556000    312.29062   -38648.476    71.427969   -38121.848   -105.70217 
  557000    313.00353    -38648.35    68.049828   -38124.061   -54.993783 
  558000     313.3018   -38659.257    60.107909   -38142.475    -61.36639 
  559000     318.0909   -38689.242    75.308447    -38150.28   -574.57706 
  560000    308.60732   -38674.755    67.270411   -38157.653   -490.51555 
  561000    304.45346   -38668.171    65.169576   -38159.225   -306.24946 
  562000    283.98901   -38643.321    64.652683   -38164.721   -227.89386 
  563000    293.33388   -38668.062    70.843607   -38169.651   -987.22203 
  564000    299.13802   -38654.824    69.240529   -38149.555   -465.95921 
  565000    297.23055   -38681.603    59.142313   -38189.213   -826.78013 
  566000     299.1208   -38669.596    66.600533   -38166.993   -259.52769 
  567000    296.73242   -38671.425     63.27626   -38175.627   -407.95112 
  568000    300.10674   -38685.499     71.37811    -38176.68   -453.06543 
  569000    288.91664   -38670.374     65.70003   -38183.544   -41.892416 
  570000    296.53894   -38682.517    59.231054   -38191.046    -439.3365 
  571000    284.12338   -38658.795     72.06098   -38172.591   -638.61194 
  572000    285.03964   -38664.083    69.775639   -38178.829   -672.49394 
  573000    301.73186   -38674.855    65.642532   -38169.403   -502.61761 
  574000    288.03416   -38637.103    65.896001   -38151.363    -360.1183 
  575000    311.65449   -38678.204     70.37993   -38153.551   -310.95779 
  576000     298.8875   -38647.432    61.043095   -38150.726   -334.50186 
  577000    297.66037   -38646.274     80.73355   -38131.666   -322.81595 
  578000    301.18898   -38649.676    68.335534   -38142.323   -535.59687 
  579000    287.76472   -38680.141    66.513105   -38194.177    -286.1411 
  580000    288.81855   -38681.429    67.215465   -38193.227   -194.96024 
  581000     291.8788   -38632.543    69.843776   -38137.252   -283.90324 
  582000    285.73939   -38655.513    62.618855   -38176.396   -782.07495 
  583000    319.05208   -38658.371    61.621494   -38131.694   -165.33981 
  584000    294.55451   -38655.426    66.917986   -38159.161   -161.34394 
  585000     319.5926   -38688.973    62.658475   -38160.471   -132.29454 
  586000     298.5693    -38666.65    79.418932   -38152.031   -782.30633 
  587000    296.49888   -38673.587     57.25035   -38184.155   -458.44617 
  588000    315.49412   -38659.403    64.203613    -38135.33   -343.89256 
  589000    313.65688   -38653.593    57.873752   -38138.528   -563.86773 
  590000    310.23547   -38652.929    60.685282   -38140.039   -757.38608 
  591000    303.37934   -38664.757    74.507683   -38148.038   -707.13555 
  592000    310.17043   -38666.912    61.966905   -38152.835   -282.94539 
  593000    294.49745    -38678.62    69.210439   -38180.146   -533.38612 
  594000    313.69971   -38644.464    55.222958   -38131.988   -160.09252 
  595000    299.25658    -38637.18    73.811708   -38127.167   -247.06471 
  596000    295.18268    -38671.34    65.684522   -38175.392    -1083.643 
  597000    303.34641   -38689.267    68.734012   -38178.371     148.6724 
  598000    306.56934   -38630.268    61.312725   -38122.095   -149.65831 
  599000    321.24848   -38654.843    82.597855   -38103.989   -420.67663 
  600000    301.75899    -38681.31    67.540262   -38173.921   -538.58969 
Loop time of 22.8 on 2 procs for 50000 steps with 490 atoms

Performance: 189.473 ns/day, 0.127 hours/ns, 2192.980 timesteps/s
93.2% CPU use with 2 MPI tasks x 1 OpenMP threads

MPI task timing breakdown:
Section |  min time  |  avg time  |  max time  |%varavg| %total
---------------------------------------------------------------
Pair    | 7.2351     | 9.6372     | 12.039     |  77.4 | 42.27
Bond    | 0.076011   | 0.16609    | 0.25617    |  22.1 |  0.73
Kspace  | 8.7806     | 11.237     | 13.693     |  73.3 | 49.29
Neigh   | 0.2934     | 0.29407    | 0.29475    |   0.1 |  1.29
Comm    | 0.71157    | 0.82823    | 0.94489    |  12.8 |  3.63
Output  | 0.00082234 | 0.0010351  | 0.0012479  |   0.7 |  0.00
Modify  | 0.55014    | 0.56757    | 0.58501    |   2.3 |  2.49
Other   |            | 0.06876    |            |       |  0.30

Nlocal:        245.000 ave         272 max         218 min
Histogram: 1 0 0 0 0 0 0 0 0 1
Nghost:        1345.00 ave        1372 max        1318 min
Histogram: 1 0 0 0 0 0 0 0 0 1
Neighs:        27015.5 ave       33715 max       20316 min
Histogram: 1 0 0 0 0 0 0 0 0 1

Total # of neighbors = 54031
Ave neighs/atom = 110.26735
Ave special neighs/atom = 1.3469388
Neighbor list builds = 691
Dangerous builds = 0
fix myat1 all ave/time 10 200 2000 v_zave v_zdes file position.${cpt}.dat
fix myat1 all ave/time 10 200 2000 v_zave v_zdes file position.2.dat
run 500000
PPPM initialization ...
  using 12-bit tables for long-range coulomb (src/kspace.cpp:340)
  G vector (1/distance) = 0.26364888
  grid = 15 15 24
  stencil order = 5
  estimated absolute RMS force accuracy = 0.026549759
  estimated relative force accuracy = 7.9953811e-05
  using double precision FFTW3
  3d grid and FFT values/proc = 8228 2700
Per MPI rank memory allocation (min/avg/max) = 13.23 | 13.46 | 13.69 Mbytes
Step Temp E_pair E_mol TotEng Press 
  600000    301.75899    -38681.31    67.540262   -38173.921   -538.58969 
  601000    324.68222   -38669.265    70.707568   -38125.295   -368.45042 
  602000    299.34532   -38656.528    72.958508   -38147.239   -816.61863 
  603000    305.00351   -38667.189    69.670707    -38152.94   -221.37403 
  604000    322.94651   -38661.396    62.169462   -38128.495   -523.07722 
  605000    297.12779   -38674.341    67.397131   -38173.845   -416.13541 
  606000    298.28908   -38704.568    68.136125   -38201.641   -300.78788 
  607000    319.26334   -38669.389    74.780017   -38129.246   -648.78283 
  608000    312.48568   -38664.589    53.692892   -38155.412   -658.64924 
  609000     305.7798   -38686.903    75.469606   -38165.724   -376.01796 
  610000     305.1479   -38677.457    60.979414   -38171.689   -540.12927 
  611000    289.53148   -38688.317    61.254265   -38205.037   -252.37434 
  612000    308.30727    -38704.35     72.67033   -38182.286   -551.59388 
  613000    311.84752   -38692.864    72.601211   -38165.708   -243.46812 
  614000     277.8573   -38679.305    68.707635   -38205.588   -364.26688 
  615000    313.31167   -38678.885    63.586145   -38158.611   -522.14283 
  616000    292.05718   -38668.445    66.704074   -38176.034   -150.58914 
  617000    294.15608   -38698.638    72.765436   -38197.106    215.98865 
  618000    295.49838   -38687.953     68.96469   -38188.265   -428.81115 
  619000    297.35215   -38667.564      78.8127   -38155.326   -595.46068 
  620000    302.20857   -38666.393    71.658581    -38154.23   -102.04239 
  621000    282.02326   -38688.515    62.302092   -38215.132   -20.131636 
  622000    309.27796   -38692.046    63.456755   -38177.781   -595.52924 
  623000    294.78177   -38658.275    65.366572    -38163.23   -37.914161 
  624000    307.54549   -38661.576    61.701811   -38151.591   -384.90352 
  625000    326.73331   -38664.847    66.147846   -38122.448    -423.0607 
  626000    275.21165   -38647.726     85.41494   -38161.158   -123.25418 
  627000    294.99609   -38664.644      66.4397   -38168.213   -495.27273 
  628000    306.93282    -38687.44    73.780273   -38166.269   -1031.2266 
  629000    296.00052   -38671.081    59.605402   -38180.021   -595.93945 
  630000    303.76686   -38653.089    76.896532   -38133.417   -473.37203 
  631000    293.68175   -38663.835    57.715414   -38178.044   -588.33475 
  632000    309.80498   -38664.842    56.185619    -38157.08   -361.87255 
  633000    298.08462   -38681.888    75.157547   -38172.237    -642.6432 
  634000     299.4576   -38691.935    64.955182   -38190.485   -147.10169 
  635000    298.52771   -38668.081     59.18659   -38173.756   -470.22742 
  636000    298.73292   -38697.268    66.201626   -38195.629   -687.03715 
  637000    286.98701   -38676.387    60.589656    -38197.48   -305.26091 
  638000    313.57535   -38675.597    58.865889   -38159.659   -337.76646 
  639000    304.61896   -38648.325    72.558752   -38131.749   -571.14828 
  640000    288.26956   -38682.917    85.671449   -38177.059   -372.83646 
  641000    293.97414   -38662.268    70.502439   -38163.264   -598.87476 
  642000    288.79474   -38700.152    72.570253    -38206.63   -24.398476 
  643000    295.59671   -38657.374    64.817331    -38161.69   -981.78017 
  644000    309.21339    -38644.58    75.340241   -38118.526    12.146366 
  645000    306.19331   -38674.317    61.153105   -38166.852   -263.57475 
  646000    287.90802   -38665.531    71.770388   -38174.101   -701.06804 
  647000     303.4319   -38654.467    64.297068   -38147.883   -403.55459 
  648000    308.28973   -38666.247    62.322308   -38154.557   -499.96482 
  649000    298.03253   -38671.288    76.140556   -38160.731    -676.9427 
  650000    291.02243   -38661.653    66.220201   -38171.234   -653.38705 
  651000    285.66122    -38659.71    56.945831    -38186.38    -665.8566 
  652000    306.84839   -38655.737     67.05802   -38141.412   -918.66873 
  653000    311.16355   -38654.299     78.16843   -38122.573   -608.14481 
  654000    291.43645   -38664.796    64.436487   -38175.557   -1035.5762 
  655000    302.35538   -38681.457    75.526459   -38165.213   -1227.8502 
  656000    316.58142   -38673.024    73.676565   -38137.893    -581.4472 
  657000    301.06377   -38699.924    69.348113    -38191.74   -298.28511 
  658000     327.9516   -38686.802    60.703208   -38148.071    60.616476 
  659000    296.49649   -38661.905    56.003577   -38173.724   -442.61223 
  660000     305.4782   -38655.838    64.027347   -38146.541   -70.520445 
  661000    299.78723   -38665.871    62.601874   -38166.294   -491.16231 
  662000    303.21531   -38657.627    74.199268   -38141.456   -276.10081 
  663000    296.05968   -38661.396    62.718283   -38167.136   -278.77518 
  664000    308.41909   -38658.998    63.426552   -38146.015   -229.71326 
  665000     300.1578   -38663.899    74.068277   -38152.316   -567.05009 
  666000     300.8626   -38656.045    59.702196     -38157.8   -197.10837 
  667000    305.95632   -38681.884    68.358026   -38167.559    -420.8298 
  668000    308.27496   -38658.056    75.602619   -38133.107   -752.33478 
  669000    313.58939    -38671.37    68.471137   -38145.805   -606.94103 
  670000    300.78783   -38690.948    64.062151   -38188.453    -520.8589 
  671000    288.45289   -38672.355     64.01545   -38187.886   -522.98195 
  672000    295.28863   -38673.094    58.597936   -38184.078    -364.4111 
  673000    298.74752    -38697.38    65.424976   -38196.496   -506.81805 
  674000    283.96951   -38672.522    64.254993   -38194.348   -404.71193 
  675000    300.01863   -38649.836      68.8446    -38143.68    29.136891 
  676000    312.16991    -38672.88    73.295924    -38144.56   -725.91098 
  677000    320.56012   -38650.306    65.317978   -38117.734   -815.50346 
  678000    304.74213   -38677.704    66.604881   -38166.902   -705.38313 
  679000     308.0095   -38654.373    66.630238   -38138.783   -426.72236 
  680000    292.70102   -38670.033    59.645857   -38183.741   -118.89113 
  681000    300.56857    -38637.99    59.174755   -38140.702   -494.35853 
  682000    286.00445    -38656.56    74.845867    -38164.83   -633.62157 
  683000     305.9092   -38635.068    62.138485   -38127.032    105.52307 
  684000    294.13268   -38675.997    66.700944   -38180.563   -606.04599 
  685000    305.08273   -38678.544    74.390517    -38159.46   -398.01392 
  686000    309.19814   -38648.725    55.325564   -38142.708   -244.02757 
  687000    293.16558   -38686.718    69.202472   -38190.193   -357.64929 
  688000    301.63077   -38639.778    56.590681   -38143.525   -634.40458 
  689000    312.45553   -38657.792    73.853856   -38128.498   -691.82563 
  690000    293.09951   -38645.042    70.760411   -38147.055   -14.690707 
  691000    298.43608   -38663.937    64.968275   -38163.964    43.680645 
  692000    294.23516   -38694.948    71.495801    -38194.57    -369.3659 
  693000    289.03463    -38686.13    74.432004   -38190.396   -286.93589 
  694000    310.22275   -38677.857    71.443438   -38154.228   -320.67546 
  695000    299.85473   -38656.507    64.714342   -38154.719   -625.48076 
  696000    312.28588   -38696.766    76.092538   -38165.481   -495.26432 
  697000    313.03864   -38674.633    75.983921   -38142.359   -137.88398 
  698000    304.87102   -38698.936    67.762895   -38186.789   -435.05774 
  699000     319.5755   -38662.332    68.675806   -38127.837   -436.34767 
  700000    312.07707   -38659.562    63.207247   -38141.466   -682.57236 
  701000    295.05869   -38673.898    65.081239   -38178.735   -682.48053 
  702000    307.32549   -38660.552    80.658246   -38131.931   -721.17764 
  703000    302.33965   -38633.959    76.210353   -38117.054    -453.3823 
  704000    298.06144   -38672.747    84.446924   -38153.841   -154.36976 
  705000    282.72677   -38698.315    64.110028   -38222.098   -512.62053 
  706000    305.46585   -38678.451    68.912054   -38164.287   -377.65739 
  707000    306.62384   -38639.218    67.020964   -38125.257   -152.60523 
  708000    290.36637   -38644.732    72.791676   -38148.697   -728.22029 
  709000    298.37028   -38672.026    62.486175    -38174.63   -196.30537 
  710000    282.87858   -38668.068    77.677651   -38178.062   -318.74272 
  711000    287.88692   -38681.488    63.303968   -38198.555    -1.672602 
  712000    314.63122   -38668.681    70.914521   -38139.155   -706.37807 
  713000    299.74285   -38673.695    73.537306   -38163.248   -700.30831 
  714000    302.81496   -38672.431    76.735676   -38154.307   -691.49769 
  715000    288.13893   -38655.083    67.611042   -38167.476   -104.51106 
  716000    287.80001   -38679.868    60.441632   -38199.925   -598.88682 
  717000    314.91056   -38643.856    66.777484    -38118.06   -256.93419 
  718000    295.24069   -38670.625    79.601014   -38160.676   -168.72766 
  719000    289.97853   -38671.774    62.330451   -38186.766   -28.070723 
  720000     303.7358   -38669.206    66.613672   -38159.862   -402.52341 
  721000    281.55723   -38690.376    66.259455   -38213.714    -154.9177 
  722000    288.55528   -38679.346    64.514578   -38194.229   -340.97508 
  723000    307.14393   -38660.771    66.682188   -38146.391   -357.22273 
  724000    312.39548   -38696.177    71.577982   -38169.246   -399.47519 
  725000     308.5144   -38676.302    72.668804   -38153.937    87.894315 
  726000    305.62247   -38673.865    68.441251   -38159.944   -565.92881 
  727000    283.60387   -38683.351    75.141905   -38194.824   -581.56147 
  728000    304.19703   -38652.625    65.268222   -38143.954    -586.8298 
  729000    324.99087   -38674.319    72.755983   -38127.851   -506.71326 
  730000    296.54975   -38684.921    73.585588    -38179.08   -502.25327 
  731000    290.37923   -38672.058    71.017507   -38177.779     96.67258 
  732000    284.94266   -38671.192    67.920111   -38187.934   -272.10359 
  733000    282.58808   -38658.726    64.672314   -38182.149   -183.67492 
  734000     294.3199    -38653.39    64.494106   -38159.891   -540.35164 
  735000    292.80714    -38679.27    60.904119   -38191.565   -234.01667 
  736000     299.6479   -38664.632    65.831196   -38162.029   -282.51988 
  737000     298.4993   -38664.815    61.306386   -38168.411   -310.59669 
  738000     307.7928   -38625.782    61.279632   -38115.858    316.78641 
  739000    292.49916   -38662.104    56.837572   -38178.915   -667.69473 
  740000     310.9757   -38657.576    65.845951   -38138.447   -519.19765 
  741000    288.42541   -38667.525    70.286477   -38176.825   -160.57448 
  742000    295.78908   -38678.779    56.002552   -38191.629   -379.95795 
  743000    299.63466    -38664.12    65.293849   -38162.074    30.258895 
  744000    302.50465   -38650.085    68.180866   -38140.969   -61.545203 
  745000    309.74851    -38690.86    71.963238   -38167.402   -661.07078 
  746000    316.23129   -38649.129    57.596946   -38130.588    338.94961 
  747000    300.94726   -38666.454    61.478028   -38166.311   -539.97802 
  748000    299.34833   -38664.828    75.418467   -38153.075   -161.21718 
  749000    322.67717   -38668.951    69.746175   -38128.865   -457.89619 
  750000    298.41003   -38685.483    70.709826   -38179.806   -306.67962 
  751000     313.5561   -38678.656    77.016889   -38144.594   -584.88126 
  752000    308.42503   -38675.139    56.209608   -38169.364   -671.59227 
  753000    297.70701   -38670.952    67.823274   -38169.186     -230.679 
  754000     299.1482   -38652.838    60.049914   -38156.745    -292.9278 
  755000    310.66901   -38627.035     81.18768   -38093.011   -137.09685 
  756000    314.96093   -38631.894    66.590664   -38106.211   -409.65817 
  757000    294.80643   -38664.578    72.094152   -38162.769   -868.27422 
  758000    315.69422   -38672.339    66.098871   -38146.079   -59.144232 
  759000    309.61547   -38690.294    75.223591    -38163.77   -89.546826 
  760000     308.3905   -38652.022     77.77051   -38124.736   -305.75435 
  761000    312.63947   -38657.659     66.65402   -38135.296   -61.259349 
  762000    288.08465   -38685.599    62.668253   -38203.014   -46.610477 
  763000    292.14244   -38672.106    76.190378   -38170.084   -412.83507 
  764000    298.60105   -38649.317    63.560331   -38150.511   -354.34032 
  765000    311.94735   -38637.484    62.002205   -38120.783    176.28129 
  766000     280.2573   -38678.164     81.48438   -38188.172   -413.55188 
  767000    322.52701   -38669.278    57.751891   -38141.406   -367.61134 
  768000    300.86824   -38647.253    65.602386   -38143.101   -312.67031 
  769000    294.76601   -38664.914    66.602181   -38168.656   -64.966292 
  770000     311.3894     -38663.3    71.371639   -38138.043   -612.73582 
  771000    285.04827   -38656.345    71.333367   -38169.521   -913.73343 
  772000     272.8935   -38675.857    70.457091   -38207.626   -440.10135 
  773000    298.51849   -38659.368    56.129051   -38168.114   -452.79019 
  774000    295.51188   -38663.634    63.440236    -38169.45    -213.3225 
  775000    292.93112   -38692.533    66.928427   -38198.624   -635.29129 
  776000    319.46058   -38655.081    65.214844   -38124.216    232.74762 
  777000    296.27979   -38672.298    58.138634   -38182.297    172.93215 
  778000    305.66674   -38661.133    68.213011   -38147.375    103.22712 
  779000    303.59439   -38671.425    70.564471   -38158.337   -733.36495 
  780000    295.04978   -38686.702    57.204641   -38199.428   -303.77893 
  781000    283.62388   -38673.892    69.762762   -38190.714    403.83396 
  782000    313.93737     -38657.7    71.246381   -38128.853   -164.59753 
  783000    322.45163   -38694.736    73.396055   -38151.329   -874.16457 
  784000    283.12359   -38696.492     59.61038   -38224.196   -368.14537 
  785000    314.12054   -38699.616    70.080807   -38171.669   -787.74133 
  786000    310.76147   -38648.633    63.303468   -38132.358   -633.53587 
  787000    300.90371   -38679.608    60.037409   -38180.969    -475.6028 
  788000    302.08191   -38690.318    81.370419   -38168.629   -447.52298 
  789000    286.70655   -38644.148    89.839283     -38136.4   -877.86631 
  790000    286.38971   -38660.099     70.76108   -38171.891   -112.72099 
  791000    286.82188   -38667.031    59.471927   -38189.482   -18.965668 
  792000     302.2101   -38655.964     63.18614   -38152.272   -846.65843 
  793000    303.60449   -38685.351    65.494008   -38177.318   -417.62953 
  794000    298.38485   -38658.199    59.938466    -38163.33   -531.06092 
  795000    308.32739   -38638.596    66.432996    -38122.74   -570.34628 
  796000    305.44862   -38653.465    72.758174    -38135.48   -75.539678 
  797000    286.08225   -38649.838    57.622587   -38175.217   -189.95436 
  798000    294.73479   -38686.351     67.33271   -38189.408   -159.00708 
  799000    323.16222    -38664.57    66.482328   -38127.041   -118.31505 
  800000    311.26567   -38682.571    67.439543   -38161.426   -742.80537 
  801000    289.85639   -38667.838    67.424798   -38177.914   -240.11345 
  802000    296.62183   -38680.605    65.103303   -38183.141   -510.59735 
  803000    289.86028   -38691.215    81.489743    -38187.22   -131.38952 
  804000    277.98847   -38676.318     73.07423   -38198.043    -908.9104 
  805000    317.25534   -38664.108    63.909461   -38137.762    -437.1782 
  806000    296.11329   -38658.925    73.287889   -38154.017   -362.12761 
  807000    309.11972   -38669.818    60.157726   -38159.083   -695.75311 
  808000    304.41251   -38659.668    75.768169   -38140.183   -23.999028 
  809000    281.79997    -38692.02    68.477748   -38212.786   -350.87664 
  810000    319.88173   -38682.594    61.657546   -38154.671   -105.80488 
  811000    295.55501   -38681.965    72.291027   -38178.869   -319.53499 
  812000    301.67089   -38656.306    64.688788   -38151.897   -176.03549 
  813000    290.77053   -38683.268    61.300692   -38198.135   -342.55187 
  814000    306.70388   -38672.482    60.053173   -38165.372   -750.21854 
  815000    287.44758       -38656    70.300454   -38166.711   -1032.5387 
  816000    305.66431   -38655.517    76.361834   -38133.614   -411.91778 
  817000    297.99251   -38639.738    67.236974   -38138.142    25.802345 
  818000    300.32734    -38655.29    60.988367    -38156.54   -350.72074 
  819000    302.15767   -38676.043    73.586238   -38162.027   -273.30712 
  820000    293.32667   -38653.911    67.919747   -38158.433    -500.1949 
  821000    293.47047   -38645.717    78.808159   -38139.141    -980.1048 
  822000     292.6736   -38668.992    74.539646   -38167.847   -368.90923 
  823000    302.07315   -38684.463    71.909552   -38172.246    -193.3926 
  824000    303.70952   -38655.703    67.968006   -38145.043   -444.29491 
  825000    293.01346    -38653.07    66.322129   -38159.646   -255.16531 
  826000    300.84841   -38650.825    63.370671   -38148.933    -387.2648 
  827000      299.257   -38657.383    68.957772   -38152.223   -901.01638 
  828000    304.50547   -38653.764    63.910601   -38146.001   -561.06074 
  829000    314.09473   -38644.809    50.573352   -38136.406      156.807 
  830000    292.61019   -38678.174    74.364485   -38177.296   -649.93872 
  831000    305.67807   -38651.806    70.969239   -38135.275   -453.95381 
  832000    314.48017   -38691.149    69.071492   -38163.686   -164.71453 
  833000    298.89283   -38679.934    59.708752   -38184.554    -253.9192 
  834000    280.11825   -38645.246    64.707572   -38172.234   -449.28588 
  835000    309.80263   -38664.834    64.325288   -38148.935   -269.49992 
  836000    285.90706   -38643.919    54.400823   -38172.776   -528.54275 
  837000    322.73712   -38649.906    65.108543   -38114.371    -129.7242 
  838000    292.51366   -38656.006    62.411052   -38167.222   -723.57968 
  839000    315.92125   -38699.899    64.653923   -38174.754   -328.10098 
  840000    288.50642   -38666.135    65.001607   -38180.602   -91.659553 
  841000    306.82447   -38643.088    64.279911   -38131.576   -418.07097 
  842000    302.34131   -38649.066    73.265738   -38135.103    -266.0982 
  843000    305.11055   -38675.325    66.417747   -38164.173   -386.88702 
  844000    302.20146   -38668.792    65.301058   -38162.997    -710.8565 
  845000    300.76494   -38665.771    75.133055   -38152.238   -289.81068 
  846000     305.6636   -38676.738    76.269177   -38154.929    4.6104102 
  847000    297.92383   -38676.868    64.065597   -38178.544    -189.5657 
  848000    306.52212    -38686.84    56.124874   -38183.924   -215.44658 
  849000    288.48026   -38659.697     70.57598   -38168.628   -734.72947 
  850000    310.60528   -38675.071    68.215801   -38154.112   -353.61904 
  851000    297.00621    -38668.27     63.74476   -38171.604    -333.4773 
  852000    290.76592   -38689.957    61.343187   -38204.789   -455.54037 
  853000    296.22182   -38674.687    61.368256   -38181.541   -539.31817 
  854000    319.93165   -38672.435    61.902395   -38144.195    -776.7034 
  855000    306.47904   -38682.183    67.632338   -38167.821    -590.3464 
  856000    295.98682   -38685.625    61.439856    -38192.75   -449.01687 
  857000    299.67823   -38666.277     65.07078    -38164.39   -229.44698 
  858000    294.24761   -38661.504    71.051701   -38161.552   -651.41841 
  859000    305.57912   -38672.987    65.423447   -38162.146   -265.39431 
  860000    275.34659   -38667.554    63.814579   -38202.389   -745.28913 
  861000    302.50464   -38662.869    61.033554     -38160.9   -414.89385 
  862000     304.8635   -38645.285    65.527691   -38135.383   -76.501157 
  863000    316.51247   -38665.849    65.265486    -38139.23    -556.3756 
  864000     292.5162   -38651.359    56.758959   -38168.224   -350.98415 
  865000    294.00801   -38675.984    76.626717   -38170.806   -322.43545 
  866000    304.84612   -38652.857    73.614342   -38134.894   -594.59327 
  867000    298.10511   -38660.765    66.664454   -38159.578   -153.05858 
  868000    306.59492   -38675.259    64.863013   -38163.499   -224.83117 
  869000    317.39409     -38665.5    69.300199   -38133.561   -389.52647 
  870000    294.42675   -38677.441    63.492648   -38184.787   -676.31645 
  871000    306.99687   -38667.943    72.367454   -38148.092   -890.09932 
  872000    308.26626   -38650.921    63.908831   -38137.678   -526.55418 
  873000     298.0395   -38683.668    70.599698   -38178.641   -278.06405 
  874000    303.16142   -38669.413    64.552638   -38162.967   -731.33284 
  875000     284.0198   -38669.319    73.177349    -38182.15   -679.07979 
  876000    298.71217   -38688.073    59.831456   -38192.834   -378.73423 
  877000    293.64812   -38695.353    81.367738   -38185.959   -573.28656 
  878000    290.42714   -38672.554    68.475584   -38180.747   -207.75272 
  879000    305.78312   -38659.125    52.240628    -38161.17     78.11203 
  880000    313.13188    -38666.81     63.55419    -38146.83   -797.76716 
  881000    313.21547   -38688.335    69.959577   -38161.828   -818.64631 
  882000    306.80067   -38646.934    63.506156   -38136.231    102.95651 
  883000    309.13199   -38675.331    63.654696    -38161.08   -333.72919 
  884000    329.06419   -38674.228    67.330227   -38127.249   -335.89866 
  885000    308.44888   -38668.875    69.793813   -38149.481   -698.24231 
  886000     321.3855   -38678.658    54.703973   -38155.497   -373.79577 
  887000    319.62508   -38706.247    61.174895   -38179.181   -765.27284 
  888000    297.36574   -38659.816    67.318275   -38159.052   -276.53622 
  889000     315.8264   -38665.822    67.513471   -38137.955   -197.55137 
  890000     299.9348   -38686.898    82.781361   -38166.926     -506.417 
  891000    287.94788   -38673.979    60.632048   -38193.629   -48.524831 
  892000    317.09983   -38663.584    76.802968   -38124.571   -376.75833 
  893000    308.31887   -38667.589    67.937291   -38150.241    109.73291 
  894000    303.49409   -38644.006    71.649876   -38129.978   -537.28469 
  895000    301.58773   -38647.453    63.473509    -38144.38   -443.37998 
  896000    284.98926    -38650.07    71.159139   -38163.506   -596.65882 
  897000    306.43362    -38672.34    78.206772   -38147.471   -330.09609 
  898000    298.14739   -38659.222    64.364572   -38160.273   -772.20197 
  899000    284.12588    -38675.01    64.042562   -38196.821   -169.58086 
  900000    313.70318   -38646.159    70.408393   -38118.492   -133.16912 
  901000    306.95482    -38671.08    63.960643   -38159.697    -209.3402 
  902000    284.58341    -38705.04    69.070916   -38221.155   -67.839457 
  903000    321.42363   -38650.135    65.763144    -38115.86    69.009279 
  904000    307.76079   -38660.223    67.438259   -38144.187   -450.83995 
  905000    310.79272   -38675.996     62.92024    -38160.06   -315.60655 
  906000    305.21261   -38662.854    59.477262   -38158.494   -444.07796 
  907000    284.56368    -38698.65    66.914424   -38216.951   -635.59012 
  908000    297.53977   -38663.381    68.215028   -38161.467    -530.6527 
  909000    306.33505   -38689.433    76.854565   -38166.059   -184.54885 
  910000    306.19698   -38681.851    61.107375   -38174.426   -417.83751 
  911000    301.82677   -38670.574    59.911435   -38170.715   -504.32548 
  912000    304.76862   -38698.868     54.75822   -38199.874   -643.56754 
  913000    302.36557   -38653.771    71.409227   -38141.629   -212.71747 
  914000    306.53317   -38666.035    77.840136   -38141.387   -176.07112 
  915000    321.80454   -38649.665    63.213262   -38117.384   -327.86836 
  916000    331.68791   -38655.355    52.383493   -38119.497   -65.465955 
  917000    303.49155   -38644.953    62.353267   -38140.225    21.617151 
  918000    297.45265   -38660.925    61.483058    -38165.87   -429.46336 
  919000     306.4572   -38658.276    72.843195   -38138.736   -500.30319 
  920000    270.05601   -38657.233    73.231511   -38190.364   -500.60685 
  921000    310.98283   -38666.105    61.918125   -38150.894   -33.279295 
  922000    278.10146   -38689.501    71.214121   -38212.921   -867.78066 
  923000    307.18311   -38643.148    64.594268   -38130.798   -452.41606 
  924000    314.67677   -38654.783    66.133784   -38129.971    -543.6461 
  925000    305.24892   -38669.352    71.347619   -38153.068   -538.17496 
  926000    297.27749   -38670.014    52.471032   -38184.227   -400.65645 
  927000    295.95126   -38685.757    65.108558   -38189.265   -373.75782 
  928000    285.57346   -38680.883    61.114529   -38203.512   -287.69262 
  929000    294.30538    -38643.32    67.309778   -38147.026   -626.29753 
[...]
12952000    316.74498   -38668.744    53.265126   -38153.786   -678.04045 
12953000     309.5644   -38651.363    75.735905   -38124.401   -262.55545 
12954000    296.08125   -38631.962    69.384385   -38131.005   -245.56174 
12955000    302.81449    -38637.87    74.176929   -38122.306   -426.48377 
12956000    290.85854   -38671.069    66.498003   -38180.611   -551.42389 
12957000    300.64479   -38673.084    62.500644   -38172.359   -664.78911 
12958000    298.46366   -38671.352    69.108956   -38167.197   -543.18279 
12959000    292.95818   -38681.864    73.976312   -38180.867   -503.31179 
12960000    314.86572   -38670.768    60.071049   -38151.744   -576.68411 
12961000    276.06349   -38674.401     76.44625   -38195.561   -221.90617 
12962000    275.61756   -38651.166    73.335791   -38176.086   -437.81604 
12963000    291.88678    -38669.19    69.964841   -38173.766   -368.02629 
12964000    282.93557   -38642.759    77.619838   -38152.727   -357.28496 
12965000    286.23317   -38633.009    66.536659   -38149.255    2.6092331 
12966000     305.7836   -38672.523    60.338517   -38166.469   -21.473742 
12967000    291.90364   -38639.987    65.693092    -38148.81   -347.64586 
12968000    301.59026   -38650.568    71.816672   -38139.149   -778.70771 
12969000    296.59705   -38656.156    60.481164   -38163.351   -673.21997 
12970000    307.04801   -38657.468    66.097309   -38143.813    -594.9304 
12971000    314.73992   -38656.417    74.413228   -38123.234   -401.28982 
12972000    304.45089   -38650.848    69.324855   -38137.751   -319.96793 
12973000    327.58486   -38664.711    56.863216   -38130.355   -323.17832 
12974000    297.62429   -38663.956    78.874134    -38151.26   -734.67359 
12975000    305.79993   -38676.256    63.545571   -38166.972    48.900941 
12976000    297.58689   -38624.789    69.662105    -38121.36   -94.946739 
12977000    291.50406   -38656.374    71.689988   -38159.783   -658.78029 
12978000    299.64147   -38633.911    62.888654    -38134.26   -668.65898 
12979000    288.41764   -38647.399    72.750763   -38154.246   -609.55492 
12980000    297.67683   -38668.494    63.264131   -38171.332   -83.583388 
12981000     307.5502   -38643.675    66.856347   -38128.529   -651.65575 
12982000    299.51375   -38656.735      57.6085    -38162.55   -53.429715 
12983000    291.98031   -38653.891    53.704261   -38174.591    127.78597 
12984000    306.68786   -38637.896    59.868486   -38130.995   -440.78725 
12985000    302.53525   -38634.095    62.719705   -38130.395   -537.44145 
12986000     321.3937   -38670.993    75.317404   -38127.207   -475.08925 
12987000    289.83682   -38662.488    72.870717   -38167.146   -235.97417 
12988000    289.04936   -38673.286    69.523702   -38182.439    -923.4493 
12989000    293.09655   -38645.529    68.617114   -38149.689   -397.89912 
12990000    307.68562   -38642.283    73.806516   -38119.988    -657.4561 
12991000     317.6409   -38663.747    63.173122   -38137.575   -532.55608 
12992000    299.36069   -38677.902    73.218542    -38168.33   -407.18304 
12993000    281.51909   -38667.365    63.051362   -38193.967   -560.57625 
12994000    304.04886   -38635.442    67.271226   -38124.984     322.4463 
12995000    301.55282   -38638.668    62.198487   -38136.921   -107.95299 
12996000     302.9106     -38647.9    55.325626   -38151.047   -290.19635 
12997000     306.4894   -38654.877     74.16801   -38133.965   -524.63195 
12998000    309.93812   -38656.183    64.349021   -38140.063   -113.29006 
12999000    306.18718   -38646.141    61.224895   -38138.613   -446.66546 
13000000    299.13038   -38639.371    68.493483    -38134.86   -56.643394 
13001000    289.28944   -38661.226    76.793732    -38162.76   -510.96003 
13002000    307.46947    -38673.77    54.444734   -38171.152   -817.39759 
13003000    282.23387   -38638.099    66.563736   -38160.146   -386.95645 
13004000    300.65046    -38653.43    65.885886   -38149.311   -832.80456 
13005000    295.76731   -38660.929     70.66137   -38159.152   -308.42252 
13006000     303.6558   -38658.101    68.147891   -38147.339   -720.92131 
13007000    308.77153   -38679.309     65.87849   -38163.361   -397.70619 
13008000    300.01553   -38661.346    67.827079   -38156.212   -315.60685 
13009000    279.14048   -38652.717    67.013389   -38178.824   -135.01808 
13010000     315.4753   -38682.207    78.889534   -38143.476   -464.98453 
13011000      306.562   -38667.848    61.583519   -38159.414   -106.47767 
13012000    300.15096   -38658.595    59.673007   -38161.417   -761.69234 
13013000    303.80044   -38680.933    65.579737   -38172.529   -629.27929 
13014000    296.45038    -38644.43    67.622937   -38144.696   -611.55303 
13015000     298.8205   -38636.174    66.248341    -38134.36   -44.455592 
13016000    295.22832   -38638.774    61.555702   -38146.889   -700.85714 
13017000    324.97345   -38658.769    65.975023   -38119.107   -295.38118 
13018000    299.39976   -38651.402    66.422777   -38148.569   -391.93007 
13019000     296.0586   -38660.145    65.132652   -38163.473   -499.65491 
13020000    292.21097   -38642.302    66.457341   -38149.913   -380.60834 
13021000    296.89775   -38663.029    65.015334   -38165.251   -698.11156 
13022000    320.74831   -38674.898    64.079443    -38143.29   -122.70746 
13023000    306.50095    -38658.39    69.017515   -38142.612    91.954887 
13024000    297.77502   -38639.657    77.639483   -38127.976   -556.68884 
13025000    312.65117   -38662.893     69.54084   -38137.626   -330.00094 
13026000    296.78553   -38661.717    69.870272   -38159.247   -608.09799 
13027000    325.04679   -38669.354    72.512362   -38123.048   -513.64075 
13028000    297.76196   -38659.641    78.479769   -38147.139   -461.84172 
13029000      284.821    -38652.65    68.975639   -38168.515   -234.90403 
13030000    304.67139   -38635.256    74.680739   -38116.481    -315.3793 
13031000    292.10567   -38646.193     70.37013   -38150.045    -139.8575 
13032000    290.62723   -38668.953    71.791678   -38173.538   -428.03529 
13033000    313.26569   -38640.786    70.838236   -38113.327   -430.67434 
13034000    299.38253    -38653.09    63.592898   -38153.113   -229.78835 
13035000    293.91291    -38636.56    64.299498   -38143.848    -402.7221 
13036000    308.65656   -38645.629    61.142092   -38134.584   -82.215202 
13037000    315.60021   -38651.736    72.311491   -38119.401   -363.34857 
13038000    293.70994   -38639.356     71.75039   -38139.489   -227.80502 
13039000    310.97538   -38641.651    65.314195   -38123.054   -317.64745 
13040000    284.70361   -38653.313    61.893704    -38176.43    -631.5688 
13041000     305.1242   -38667.631    60.057682   -38162.819   -671.00484 
13042000    291.37188   -38636.181    57.820916   -38153.652   -384.97494 
13043000     313.1978   -38647.993    64.864852   -38126.606   -82.484516 
13044000    298.35169   -38608.096    53.018834   -38120.195   -440.60641 
13045000    310.30564   -38653.089    77.912988    -38122.87   -793.15217 
13046000    305.05258   -38652.386    60.928816   -38146.807   -488.64849 
13047000    311.44605   -38658.778    74.439748   -38130.369   -424.45832 
13048000    307.70697   -38659.051    69.242505    -38141.29    243.16367 
13049000    311.31596   -38641.597    69.960672   -38117.857   -409.60536 
13050000     310.0125   -38651.968    58.510747   -38141.578   -56.604986 
13051000    294.54929   -38629.618    66.257466   -38134.021    -688.8478 
13052000    312.51878   -38645.304    76.668061   -38113.103   -206.13721 
13053000    307.34576   -38680.012    70.500959   -38161.519   -701.64193 
13054000    305.23209   -38652.507    66.260485   -38141.335   -401.97896 
13055000    300.28082   -38640.689    64.079601   -38138.915   -163.45412 
13056000    303.45825    -38661.54    76.234744   -38142.979   -293.29352 
13057000    317.33013   -38627.179     66.19412   -38098.439   -435.78024 
13058000    295.52579   -38682.448    67.138933   -38184.546   -764.52568 
13059000    306.55996   -38662.166    63.003888   -38152.315    -862.5959 
13060000    291.26028   -38656.677    63.110404   -38169.021   -233.71642 
13061000    283.03692   -38678.487    65.622207   -38200.306   -191.03287 
13062000    282.63237   -38643.435    66.337855   -38165.128   -455.54545 
13063000    294.06441    -38690.66    68.469551   -38193.557   -600.90366 
13064000    282.48447   -38645.631    60.596906   -38173.281   -260.90437 
13065000    317.56066   -38654.089    61.817468    -38129.39   -468.84709 
13066000    298.15285   -38643.982    70.558033   -38138.831   -189.42007 
13067000    306.08423    -38626.71    67.742699   -38112.814   -251.91929 
13068000    324.97794   -38646.898    58.470539   -38114.734   -413.18984 
13069000    297.04863   -38641.544    68.633026   -38139.928   -609.24655 
13070000    293.32555    -38646.74    66.417718   -38152.767   -476.64831 
13071000    311.35941   -38641.446    63.782934   -38123.821   -524.21494 
13072000    311.72013   -38644.041    73.216637   -38116.456   -586.29998 
13073000    312.98256   -38653.634    71.294458   -38126.131   -1049.6566 
13074000    294.04699   -38622.961    53.914415   -38140.439   -696.03229 
13075000    295.51856   -38642.913    63.974935   -38148.186   -614.68741 
13076000    276.15004   -38643.907    73.881411   -38167.505   -660.95383 
13077000    290.76833    -38650.15    66.408474   -38159.913   -633.15638 
13078000    290.63102   -38657.399    62.324756   -38171.446     -438.547 
13079000    307.95646    -38639.84    76.067459    -38114.89   -670.79473 
13080000    302.76775     -38655.6     75.74448   -38138.537   -481.78354 
13081000    285.61375   -38672.406    57.401662   -38198.689   -800.52163 
13082000    314.40723     -38660.6    72.106353   -38130.208   -195.69408 
13083000    291.16668   -38640.329    69.512145   -38146.408   -407.25973 
13084000    286.24917    -38658.09    60.432094   -38180.417   -264.35143 
13085000    289.97663   -38634.789    57.169326   -38154.945   -53.150566 
13086000    278.07353    -38676.39    62.472337   -38208.593   -274.90763 
13087000    301.77508   -38650.556    58.237056   -38152.447   -313.67641 
13088000    301.04561    -38641.13    70.667695   -38131.653   -437.15972 
13089000    300.96486    -38660.97    64.617921   -38157.661   -637.82985 
13090000    294.15419   -38634.888    69.005067   -38137.119   -700.52727 
13091000    300.52345   -38644.941    65.177338   -38141.716   -677.51279 
13092000    296.40977   -38666.689    68.100915   -38166.537   -258.05854 
13093000    292.49212   -38668.897    63.293829   -38179.262   -445.85268 
13094000    289.39609   -38663.905    76.222052   -38165.854   -499.84886 
13095000    318.55446   -38681.068    81.178363   -38135.559   -452.85315 
13096000    311.95994   -38681.817    66.215249   -38160.884   -203.56788 
13097000    283.33598   -38645.484    65.798875    -38166.69   -396.91581 
13098000    295.56389   -38641.497    61.945507   -38148.732   -314.04532 
13099000    279.42908    -38663.57    71.179748    -38185.09   -429.24007 
13100000    321.02293   -38639.564    55.141751   -38116.494   -320.52586 
13101000    298.99572   -38654.188    61.211012   -38157.156   -216.59496 
13102000    294.48464    -38661.17    63.063443   -38168.861    19.844633 
13103000     303.9029   -38642.498    68.814058    -38130.71   -386.71044 
13104000    304.07629    -38643.78    86.406289   -38114.147   -178.07255 
13105000    297.83427   -38649.576    64.149576   -38151.298   -40.489614 
13106000    305.22998   -38645.641    63.878626   -38136.854   -341.76764 
13107000    294.33097   -38632.499    77.722692   -38125.754   -469.31529 
13108000    316.75187    -38658.69    61.087945   -38135.899   -958.53073 
13109000    292.71163   -38687.873    59.730127   -38201.481   -171.60555 
13110000    294.79816   -38659.069    81.522191   -38147.844   -834.57211 
13111000     280.6878   -38635.876    55.631924   -38171.109   -362.83528 
13112000    296.87022   -38645.033    63.987889   -38148.323   -334.54326 
13113000    302.86733   -38648.283    71.663892   -38135.155   -517.61951 
13114000    303.88715   -38641.532     68.81948   -38129.762   -150.88111 
13115000    298.79283   -38626.366    67.528549   -38123.313   -677.28818 
13116000    284.47449   -38665.505    68.906032   -38181.944   -152.81075 
13117000    305.54732   -38649.728    64.926756   -38139.431   -740.43494 
13118000    293.53549   -38658.443    72.526942   -38158.054    -180.0497 
13119000    299.55774   -38648.876    55.206677   -38157.029    80.997543 
13120000    306.04134   -38659.693    64.225568   -38149.377   -569.75963 
13121000    299.73034   -38656.389    82.948574   -38136.549   -469.99015 
13122000    297.36077   -38664.344    55.338825   -38175.567   -330.36341 
13123000     297.0218   -38649.004    73.377604   -38142.682    -288.5666 
13124000    314.21303   -38669.629    68.163613   -38143.463   -826.74801 
13125000    284.96177   -38629.117    75.496302   -38138.256   -279.28056 
13126000    300.49512   -38662.419    70.645375   -38153.767   -123.41296 
13127000     301.1679   -38644.182     60.84434   -38144.351    69.470466 
13128000    301.35058   -38684.925    67.957173   -38177.715   -3.2335978 
13129000    304.92901   -38662.375    61.966111   -38155.939   -75.641947 
13130000    307.88904    -38627.16    62.541616   -38115.834   -521.12206 
13131000     302.9949   -38657.139    61.809209    -38153.68   -676.22255 
13132000    316.58369   -38651.263    69.154083   -38120.652    -336.2648 
13133000    294.52354   -38639.052    70.690651   -38139.059   -537.77822 
13134000    292.90528   -38644.111    61.703953   -38155.464   -590.37064 
13135000     288.7792    -38671.38    55.618464   -38194.833   -357.97292 
13136000    301.39174   -38672.955    72.307971   -38161.334   -572.20405 
13137000    296.36491   -38677.738     67.78898   -38177.963   -701.53167 
13138000    285.32498   -38639.079    72.791393   -38150.393   -425.83133 
13139000    289.75683   -38661.186     54.86537   -38183.966   -386.26045 
13140000    299.81679   -38646.301    63.021262   -38146.262   -234.19118 
13141000    270.53831   -38647.603    65.063526   -38188.198   -475.49114 
13142000    295.68064   -38652.243    64.299128   -38156.956   -143.51774 
13143000    307.54327   -38651.209    55.188048    -38147.74    57.987899 
13144000    285.05971   -38633.329    63.715584   -38154.106   -853.97673 
13145000    296.61325   -38631.315    61.270208   -38137.696   -15.013798 
13146000    293.23289   -38648.113    68.358318   -38152.333   -3.3857575 
13147000    300.98417   -38652.948      72.4199   -38141.809    -316.2426 
13148000    311.90779   -38642.956     79.37416    -38108.94   -67.914214 
13149000    306.00318   -38649.727    69.100654   -38134.591   -589.55242 
13150000    295.88777   -38670.401    73.149162   -38165.961   -490.31445 
13151000    291.44892   -38669.771    63.050367     -38181.9   -394.55681 
13152000    296.41755    -38665.65    56.245037   -38177.342   -478.43271 
13153000    302.65459   -38637.643    76.974938   -38119.514   -60.788594 
13154000    299.48186   -38649.273    55.814738   -38156.929   -222.71855 
13155000    292.40538   -38648.445    59.741812   -38162.488    -444.8319 
13156000    304.40204   -38645.478    73.980817   -38127.796   -692.51812 
13157000    296.20893   -38649.345    67.718184   -38149.868   -756.30773 
13158000    306.44359   -38633.036    75.031616   -38111.327   -847.83775 
13159000    288.55227   -38639.303    68.094137    -38150.61   -523.34631 
13160000    312.58531   -38663.858    72.155568   -38136.073   -768.96428 
13161000    291.21065   -38626.693    72.163146   -38130.057    -138.0664 
13162000    294.13557    -38627.82     65.10507   -38133.978   -202.80774 
13163000    292.18832   -38669.224    66.009866   -38177.316   -436.33863 
13164000    296.91596   -38633.445    76.061764   -38124.594   -336.63821 
13165000    294.25436   -38659.591    69.859172   -38160.822   -337.53293 
13166000    278.42097   -38627.053    69.781537   -38151.441    -721.4262 
13167000    285.88398   -38662.043     62.84383    -38182.49   -100.52252 
13168000    313.20946   -38617.556    55.785298   -38105.232   -90.390753 
13169000     301.5837   -38652.395    55.943464   -38156.859   -403.92985 
13170000    290.42933   -38657.508    66.724074    -38167.45   -534.69661 
13171000    287.12763   -38645.269    74.221197   -38152.526   -346.10435 
13172000     299.7469   -38653.191    69.130269   -38147.144   -14.461965 
13173000    302.26614   -38667.308    66.435919   -38160.284   -249.54715 
13174000     284.6118   -38675.788     67.88887   -38193.044   -298.05475 
13175000    305.10982   -38672.892    69.768055   -38158.391   -333.70432 
13176000    296.77962   -38665.702    51.312557   -38181.798   -299.79518 
13177000    308.64611   -38636.265    54.189356   -38132.189   -356.85206 
13178000     292.0251   -38668.771    60.950012    -38182.16   -94.475874 
13179000    295.15306   -38627.251    73.948167   -38123.083   -251.39029 
13180000    297.49517   -38634.498    76.698348   -38124.166   -507.21152 
13181000    293.75737   -38638.447    61.702111   -38148.559   -689.89595 
13182000    305.50827   -38668.655    74.349857   -38148.991   -437.78073 
13183000    306.42471   -38657.132    74.245421   -38136.237   -806.03914 
13184000    311.98703   -38653.296    77.489406   -38121.049    -362.5133 
13185000    299.62158   -38636.334    76.930458   -38122.671   -152.31689 
13186000    322.07619    -38681.49    62.713264   -38149.313   -1136.7813 
13187000    287.71378    -38647.27    79.642341   -38148.251   -372.93326 
13188000     309.4288   -38636.197    67.498431    -38117.67   -772.05934 
13189000    307.78593   -38645.892    69.436063   -38127.822   -581.46945 
13190000    284.99387   -38655.207    75.131756   -38164.664   -50.259627 
13191000    288.99841    -38650.35    65.662575   -38163.439   -734.12774 
13192000    307.30489   -38663.804    59.696675   -38156.175    -177.3329 
13193000    287.04598   -38683.021    61.143888   -38203.474   -727.35522 
13194000    291.28036   -38637.451    70.768359   -38142.108   -382.87325 
13195000    290.02281   -38665.679    61.280653   -38181.657   -194.77698 
13196000    290.60197   -38662.766    65.791632   -38173.388   -346.13917 
13197000    319.20292   -38643.437    69.517439   -38108.644   -445.97306 
13198000    322.29423   -38669.214    61.004541   -38138.428   -650.84051 
13199000    300.54271   -38647.303    67.315326   -38141.911   -367.34627 
13200000    297.15693   -38641.014    67.467907   -38140.405    40.034497 
Loop time of 232.105 on 2 procs for 500000 steps with 490 atoms

Performance: 186.123 ns/day, 0.129 hours/ns, 2154.202 timesteps/s
93.8% CPU use with 2 MPI tasks x 1 OpenMP threads

MPI task timing breakdown:
Section |  min time  |  avg time  |  max time  |%varavg| %total
---------------------------------------------------------------
Pair    | 68.787     | 95.686     | 122.59     | 275.0 | 41.23
Bond    | 0.76424    | 1.6672     | 2.5701     |  69.9 |  0.72
Kspace  | 88.702     | 116.25     | 143.79     | 255.5 | 50.08
Neigh   | 3.0456     | 3.0539     | 3.0623     |   0.5 |  1.32
Comm    | 7.5323     | 8.799      | 10.066     |  42.7 |  3.79
Output  | 0.012077   | 0.013387   | 0.014698   |   1.1 |  0.01
Modify  | 5.7293     | 5.891      | 6.0526     |   6.7 |  2.54
Other   |            | 0.7459     |            |       |  0.32

Nlocal:        245.000 ave         272 max         218 min
Histogram: 1 0 0 0 0 0 0 0 0 1
Nghost:        1422.00 ave        1449 max        1395 min
Histogram: 1 0 0 0 0 0 0 0 0 1
Neighs:        26424.0 ave       33505 max       19343 min
Histogram: 1 0 0 0 0 0 0 0 0 1

Total # of neighbors = 52848
Ave neighs/atom = 107.85306
Ave special neighs/atom = 1.3469388
Neighbor list builds = 7207
Dangerous builds = 0
unfix myat1
next cpt
jump SELF loop
Total wall time: 1:42:55
