ITEM: TIMESTEP
5720000
ITEM: NUMBER OF ATOMS
576
ITEM: BOX BOUNDS pp pp pp
-3.1662119372314077e+00 2.3751789648828723e+01
2.4397297797306008e+00 1.8145847931862118e+01
1.5469184683713184e+00 1.9038659243222867e+01
ITEM: ATOMS id type xs ys zs
366 2 0.140207 0.125825 0.219546
470 1 0.217955 0.351474 0.252079
315 2 0.0951483 0.258712 0.17269
290 1 0.0397147 0.228696 0.191783
474 2 0.197741 0.429857 0.195419
175 2 0.172628 0.283087 0.254837
377 2 0.129463 0.416409 0.0879006
75 1 0.148251 0.222716 0.191959
402 2 0.0758016 0.118881 0.398409
488 1 0.0424798 0.194142 0.36358
360 2 0.188001 0.218947 0.125766
220 2 0.172279 0.124934 0.38291
408 1 0.223014 0.179637 0.0597182
46 1 0.127052 0.0751214 0.421672
124 2 0.0349253 0.187094 0.272759
210 1 0.0474274 0.371345 0.421076
38 1 0.197874 0.409791 0.411128
314 2 0.230405 0.385127 0.335122
419 2 0.0661625 0.283322 0.383715
306 2 0.052213 0.440126 0.35235
401 2 0.183543 0.329353 0.463993
118 1 0.145399 0.464769 0.164084
201 1 0.232604 0.109545 0.378145
364 2 0.14805 0.452229 0.375017
231 2 0.105567 0.451018 0.230031
60 2 0.111127 0.0384969 0.0962383
352 1 0.137948 0.0354923 0.178691
168 2 0.231149 0.468334 0.460995
536 2 0.0228528 0.146538 0.140803
123 2 0.18557 0.113376 0.0170238
380 1 0.103036 0.481076 0.319101
300 1 0.129294 0.0719099 0.0133346
432 2 0.113966 0.285829 0.00838068
484 2 0.24909 0.0565972 0.303605
249 2 0.193383 0.0109915 0.160822
40 2 0.247535 0.0658929 0.457871
199 1 0.129703 0.38543 0.00127808
50 2 0.240496 0.260501 0.00451604
404 2 0.0100334 0.315818 0.187023
392 2 0.0770416 0.395129 0.499385
550 1 0.373814 0.0990742 0.46358
311 2 0.464228 0.359702 0.195698
173 1 0.329779 0.140728 0.114641
228 1 0.312521 0.47311 0.0342627
464 2 0.442864 0.236459 0.0342061
553 2 0.335826 0.283417 0.305225
289 1 0.478536 0.413729 0.121828
186 2 0.443225 0.00525772 0.166203
57 1 0.477467 0.352663 0.289288
558 2 0.432906 0.0996512 0.47865
131 2 0.422484 0.116166 0.267186
498 1 0.323601 0.299254 0.217818
111 1 0.408376 0.455931 0.405015
324 2 0.26262 0.418065 0.051247
381 1 0.491221 0.088108 0.459561
422 2 0.352661 0.162517 0.400896
273 1 0.469416 0.167606 0.300134
476 2 0.259886 0.201751 0.366997
411 2 0.263354 0.304264 0.214878
180 2 0.346038 0.394084 0.205503
107 2 0.456746 0.262061 0.317185
278 2 0.308375 0.304531 0.452623
239 2 0.271698 0.132548 0.0911575
227 1 0.399294 0.0349216 0.222117
493 2 0.350316 0.0682467 0.17373
256 2 0.342589 0.231856 0.157683
373 2 0.361839 0.139956 0.0379568
35 2 0.43501 0.430227 0.0597267
236 1 0.315292 0.241322 0.382209
501 2 0.449118 0.421521 0.339441
420 2 0.391231 0.378368 0.459756
163 1 0.348882 0.492223 0.199311
27 2 0.35863 0.00156734 0.449919
13 2 0.491304 0.11681 0.370807
497 1 0.49945 0.26801 0.0184443
529 2 0.352847 0.407622 0.00167197
269 2 0.0981273 0.290455 0.748387
95 2 0.170047 0.24001 0.840127
287 2 0.114451 0.134509 0.790506
345 1 0.191067 0.310898 0.556583
83 1 0.112819 0.231147 0.814212
101 1 0.0832819 0.341471 0.576142
288 2 0.0729298 0.250028 0.879732
195 2 0.135845 0.301319 0.586283
230 2 0.223701 0.226512 0.569857
397 1 0.21672 0.190918 0.804286
285 2 0.0704623 0.402696 0.648103
321 2 0.0393888 0.100144 0.592767
152 2 0.207878 0.183338 0.711432
563 2 0.220944 0.391215 0.591276
569 1 0.0839752 0.388988 0.737009
328 2 0.0398812 0.266623 0.56808
41 2 0.0351999 0.413336 0.78659
264 1 0.0901721 0.0438282 0.581341
524 1 0.0690469 0.232978 0.969239
281 1 0.104507 0.0390669 0.751575
369 2 0.130144 0.441946 0.765377
98 2 0.090592 0.439211 0.95271
409 2 0.231312 0.102262 0.847458
322 2 0.116024 0.0530083 0.66409
521 2 0.1261 0.0788892 0.515004
100 1 0.0113641 0.187997 0.606449
516 1 0.241424 0.164988 0.63878
151 2 0.183338 0.388544 0.959834
375 2 0.085542 0.136649 0.988498
145 1 0.239764 0.360705 0.983471
455 2 0.0428103 0.0231907 0.763512
463 2 0.232511 0.0694214 0.608234
363 1 0.0387651 0.487455 0.955176
309 1 0.243357 0.0105376 0.536757
202 2 0.134619 0.00031878 0.944798
396 2 0.00810877 0.215939 0.696241
472 2 0.0118323 0.00905672 0.904528
187 2 0.0150278 0.261294 0.996595
359 2 0.384974 0.225017 0.913263
399 1 0.442212 0.184775 0.737493
486 2 0.309518 0.436367 0.538085
248 2 0.351656 0.329793 0.816358
9 2 0.498228 0.165984 0.706233
139 2 0.300494 0.186397 0.654674
318 1 0.354655 0.204602 0.615326
183 1 0.401114 0.302608 0.856471
243 2 0.423817 0.378248 0.906675
512 2 0.265006 0.250023 0.811348
245 1 0.482655 0.400623 0.585558
545 2 0.438509 0.0968471 0.955435
447 2 0.400988 0.185595 0.672087
291 1 0.279552 0.0376052 0.851527
206 2 0.33052 0.0836448 0.822682
215 2 0.427586 0.106401 0.789296
559 1 0.344267 0.353686 0.511112
266 2 0.435332 0.269811 0.787884
30 1 0.381842 0.0424993 0.795894
21 1 0.404831 0.175881 0.987568
24 2 0.427986 0.433422 0.596229
133 2 0.283476 0.414343 0.760658
388 1 0.292126 0.340027 0.822235
8 2 0.488339 0.311236 0.543926
88 2 0.351483 0.136787 0.544941
44 2 0.371746 0.472009 0.711762
367 2 0.35742 0.297167 0.580988
406 1 0.251893 0.465137 0.5475
254 1 0.406817 0.437135 0.978938
457 2 0.275327 0.373554 0.909203
343 1 0.445263 0.00278479 0.922972
415 1 0.320972 0.490354 0.751265
121 2 0.377179 0.00179263 0.712035
391 2 0.185175 0.686084 0.399738
274 2 0.130134 0.819349 0.345643
156 1 0.184001 0.611486 0.0786392
575 2 0.105073 0.760886 0.169577
299 1 0.138346 0.917219 0.319804
554 2 0.199402 0.916317 0.308038
3 1 0.060965 0.652994 0.345677
250 2 0.0890731 0.695356 0.417719
29 1 0.0478937 0.734536 0.188416
53 2 0.189353 0.849855 0.143907
307 1 0.145938 0.7955 0.108337
140 2 0.0454151 0.715309 0.277477
144 2 0.14788 0.564264 0.136058
386 2 0.0981903 0.583899 0.311304
190 1 0.138904 0.750389 0.415279
350 2 0.167124 0.711092 0.070388
208 1 0.224947 0.92902 0.137006
211 2 0.228282 0.665147 0.263052
94 2 0.111751 0.843854 0.044726
70 2 0.23683 0.604418 0.1172
442 1 0.235089 0.680276 0.35333
189 2 0.11816 0.958806 0.24085
221 2 0.0363016 0.648935 0.139331
224 2 0.0318146 0.526118 0.0384995
86 2 0.0124697 0.810741 0.166114
116 2 0.0228019 0.906707 0.444019
196 2 0.00816079 0.618721 0.369895
212 2 0.125113 0.980866 0.387199
481 2 0.148053 0.802679 0.491516
76 2 0.00522593 0.887529 0.298203
344 1 0.00580246 0.567892 0.110208
448 2 0.249236 0.938218 0.0556132
197 2 0.00140055 0.985966 0.175109
517 2 0.357262 0.502735 0.379633
106 2 0.265154 0.923943 0.20538
176 2 0.353545 0.81176 0.328218
439 2 0.340466 0.517273 0.109117
226 1 0.309276 0.831769 0.386082
523 1 0.253894 0.951193 0.290873
414 2 0.304121 0.701629 0.185638
277 2 0.439539 0.522708 0.457136
65 1 0.33575 0.599553 0.387266
413 2 0.36461 0.829239 0.179127
526 2 0.400463 0.533209 0.230768
73 1 0.398798 0.871213 0.0245467
252 2 0.439397 0.814962 0.27601
166 2 0.263231 0.770822 0.364539
337 2 0.394703 0.680567 0.177162
34 2 0.457023 0.749762 0.418206
540 2 0.42954 0.794723 0.0621024
71 2 0.332082 0.840601 0.470493
496 1 0.494304 0.553105 0.481234
499 2 0.346058 0.918818 0.0405275
365 2 0.288232 0.924245 0.362322
453 1 0.409713 0.632719 0.25616
431 2 0.462425 0.664623 0.289029
491 2 0.493244 0.66768 0.0983026
449 2 0.340358 0.724052 0.0531839
438 2 0.296839 0.542343 0.229197
14 2 0.277595 0.611141 0.374817
335 1 0.350487 0.735058 0.142178
506 1 0.266052 0.625199 0.196658
336 1 0.384281 0.854491 0.261055
421 2 0.38318 0.956158 0.272307
26 2 0.346885 0.640025 0.474054
410 2 0.37092 0.646263 0.326578
460 1 0.472965 0.730361 0.0323417
11 1 0.475812 0.753219 0.329205
135 2 0.185494 0.711538 0.905498
138 1 0.194957 0.784953 0.839641
544 2 0.0805973 0.843167 0.710865
393 2 0.18512 0.876679 0.881251
66 1 0.0982307 0.617284 0.627486
19 1 0.19003 0.612498 0.909597
428 2 0.16094 0.766819 0.767374
389 1 0.131678 0.796131 0.688396
459 2 0.165303 0.856535 0.63163
153 2 0.0933949 0.8664 0.897816
115 2 0.0374538 0.571851 0.899883
407 1 0.186631 0.849964 0.546344
105 2 0.121758 0.71329 0.634066
466 2 0.0422983 0.627928 0.595712
462 1 0.137486 0.929898 0.87827
351 2 0.150979 0.570061 0.848329
573 2 0.133224 0.562586 0.5733
398 1 0.0255569 0.676951 0.904618
547 2 0.102014 0.582267 0.713373
340 2 0.0754651 0.946326 0.563726
427 2 0.195691 0.561055 0.715717
263 1 0.146187 0.541368 0.760697
433 1 0.033675 0.883778 0.533601
22 2 0.0376602 0.78141 0.545191
508 2 0.0634858 0.731573 0.962099
161 2 0.0235964 0.717226 0.819641
435 1 0.244161 0.598678 0.670333
141 2 0.239024 0.798933 0.554837
513 2 0.242595 0.701294 0.667908
317 1 0.00805201 0.709104 0.590987
150 2 0.20115 0.942351 0.51243
489 1 0.0705344 0.832816 0.97842
90 2 0.135032 0.971285 0.795515
500 2 0.180869 0.574891 0.993333
333 2 0.242628 0.590492 0.8691
7 2 0.244347 0.555352 0.587869
576 2 0.0178258 0.878071 0.996844
255 1 0.455205 0.583823 0.917
329 2 0.296731 0.990956 0.928595
378 2 0.49869 0.804079 0.55252
454 2 0.250881 0.794865 0.813118
562 2 0.399884 0.970544 0.861851
56 1 0.344227 0.929873 0.51265
416 1 0.466831 0.733681 0.509331
518 2 0.452945 0.603587 0.826556
368 2 0.331683 0.52703 0.835907
541 1 0.36666 0.668138 0.559002
445 2 0.497915 0.990347 0.884912
355 2 0.389498 0.932616 0.570249
480 1 0.410389 0.952471 0.652533
560 1 0.38675 0.867094 0.859637
23 2 0.453808 0.557452 0.690002
185 2 0.462529 0.718275 0.717823
261 2 0.293476 0.565828 0.707983
253 1 0.477947 0.624342 0.746533
114 2 0.465902 0.988093 0.652715
341 2 0.378744 0.581383 0.60308
305 2 0.297515 0.547739 0.97635
376 2 0.415383 0.723475 0.554383
434 1 0.455865 0.813186 0.743122
437 2 0.437051 0.938976 0.991573
87 2 0.286021 0.848103 0.681569
478 1 0.409059 0.509741 0.650863
225 2 0.328753 0.681833 0.901497
193 2 0.410829 0.534402 0.952898
99 2 0.458973 0.6757 0.956729
129 1 0.300319 0.588166 0.892595
134 2 0.336919 0.853938 0.813292
219 1 0.283723 0.86414 0.769724
113 2 0.323198 0.724512 0.598549
207 2 0.295179 0.961124 0.557882
293 2 0.433842 0.823692 0.826342
361 1 0.274883 0.772325 0.623992
205 2 0.287939 0.82583 0.96535
571 2 0.416085 0.857521 0.690634
247 2 0.380979 0.820356 0.94301
326 1 0.330989 0.756417 0.964036
42 2 0.266163 0.961358 0.793023
348 2 0.495601 0.645092 0.520319
154 1 0.29192 0.920989 0.997396
570 1 0.595635 0.201831 0.0626175
91 1 0.578399 0.337608 0.364865
162 2 0.594035 0.191755 0.151498
370 1 0.56046 0.12599 0.202729
170 2 0.62242 0.283923 0.330324
296 2 0.678154 0.185762 0.2468
405 2 0.704094 0.351161 0.273491
136 1 0.680083 0.267764 0.305785
357 2 0.709086 0.227859 0.376747
295 2 0.702191 0.355968 0.124102
45 2 0.596646 0.424593 0.404481
479 1 0.654778 0.0900679 0.268831
171 2 0.595863 0.0932677 0.268025
382 2 0.534739 0.360335 0.304533
112 2 0.551736 0.280683 0.431611
59 2 0.709253 0.0958837 0.0881547
487 1 0.710791 0.129922 0.409952
104 2 0.677077 0.0746178 0.352935
320 2 0.538144 0.0478674 0.152647
43 2 0.612789 0.296634 0.0419995
55 1 0.72046 0.34666 0.036037
155 1 0.737533 0.37314 0.20114
284 2 0.538414 0.190205 0.0327548
49 2 0.729993 0.247341 0.0157084
5 2 0.511724 0.1751 0.23447
446 2 0.511526 0.348744 0.0731426
468 2 0.670399 0.0257346 0.205809
84 1 0.715082 0.016476 0.14712
418 2 0.611288 0.0236675 0.482814
492 2 0.624027 0.132014 0.014111
549 2 0.746221 0.478173 0.20433
232 2 0.6858 0.131855 0.49342
257 2 0.842065 0.00554365 0.0793771
179 2 0.878212 0.137666 0.00632635
198 2 0.968276 0.386398 0.0686659
126 2 0.933261 0.115812 0.161136
342 2 0.769692 0.013178 0.186609
330 2 0.9965 0.496024 0.174425
48 1 0.872534 0.245952 0.00539221
302 2 0.895471 0.423672 0.43318
268 2 0.858369 0.200662 0.223432
417 1 0.819488 0.459729 0.0620542
374 2 0.924373 0.393035 0.212527
4 2 0.921774 0.126411 0.312188
36 2 0.901937 0.154076 0.454207
237 1 0.751479 0.158603 0.0470254
137 1 0.929651 0.193076 0.383811
120 1 0.984533 0.0699938 0.128883
509 2 0.784959 0.31141 0.195588
214 2 0.82612 0.31278 0.424321
331 2 0.863267 0.432238 0.00729624
260 2 0.911586 0.286398 0.358302
61 2 0.988614 0.190716 0.405465
530 2 0.768333 0.411145 0.0378769
158 2 0.791244 0.169621 0.118385
436 2 0.852595 0.41578 0.302527
574 2 0.837248 0.433475 0.148379
159 2 0.991341 0.37212 0.446563
354 1 0.873892 0.448949 0.222101
425 1 0.894738 0.115572 0.23302
110 1 0.869771 0.359003 0.374597
542 1 0.947403 0.420094 0.489091
16 2 0.859472 0.0363066 0.228715
242 2 0.860269 0.27341 0.090933
332 2 0.977157 0.0311182 0.0394272
146 1 0.824104 0.24397 0.158234
531 2 0.763955 0.089172 0.408268
507 1 0.974598 0.397105 0.16416
358 2 0.684175 0.116835 0.895814
222 2 0.596929 0.382355 0.684957
475 2 0.605715 0.284618 0.899017
528 2 0.661541 0.25881 0.654529
294 2 0.543588 0.309683 0.789029
82 1 0.547397 0.386754 0.735058
572 2 0.69445 0.137219 0.741046
568 1 0.649894 0.163715 0.688723
556 2 0.598908 0.16721 0.735401
469 1 0.545908 0.126947 0.753423
308 1 0.722362 0.114354 0.821149
148 2 0.535749 0.162129 0.839993
147 1 0.641985 0.0711102 0.945671
181 1 0.622952 0.326929 0.619676
54 2 0.636582 0.0958454 0.619081
233 2 0.650836 0.376866 0.552726
259 2 0.580909 0.270806 0.576606
244 1 0.654084 0.0595043 0.536955
519 2 0.547037 0.029397 0.733878
246 1 0.548669 0.2567 0.866637
543 1 0.705478 0.414539 0.546277
429 2 0.596588 0.0432821 0.892236
47 1 0.620824 0.351345 0.967132
548 2 0.585711 0.436192 0.955425
394 2 0.724472 0.430608 0.633044
18 2 0.548432 0.468961 0.797294
319 2 0.678835 0.380162 0.975308
164 1 0.535422 0.253358 0.518867
483 2 0.509506 0.289876 0.929797
89 2 0.511624 0.47635 0.541864
520 2 0.739278 0.0164692 0.809061
503 2 0.519415 0.154221 0.514063
177 2 0.50218 0.39036 0.676412
539 2 0.746054 0.358733 0.502994
15 2 0.947053 0.0116219 0.78697
505 1 0.810021 0.150985 0.606264
79 2 0.769383 0.351966 0.858865
292 2 0.915514 0.190041 0.734978
64 1 0.973526 0.336052 0.992465
142 2 0.986395 0.148382 0.832307
204 2 0.843913 0.263493 0.813815
316 1 0.984826 0.39959 0.831447
262 1 0.913694 0.120489 0.537437
338 2 0.997231 0.408676 0.927702
160 2 0.964045 0.307316 0.806549
96 2 0.791607 0.220639 0.543572
323 2 0.770037 0.0736657 0.614568
313 2 0.820543 0.20187 0.68477
334 1 0.884279 0.392985 0.619623
229 2 0.95557 0.186191 0.567265
379 1 0.792109 0.445269 0.840077
356 2 0.822978 0.259732 0.953478
440 2 0.879964 0.484137 0.653498
267 2 0.937053 0.0279117 0.545077
81 2 0.883024 0.334165 0.692859
74 1 0.797614 0.262089 0.869601
108 2 0.941502 0.467143 0.812237
279 2 0.787246 0.456544 0.746202
97 2 0.849547 0.44797 0.862738
37 1 0.866091 0.245036 0.733257
538 2 0.922314 0.285949 0.971134
149 2 0.836575 0.366226 0.566065
346 2 0.765092 0.179332 0.842252
371 1 0.969221 0.216266 0.768389
310 2 0.863418 0.115857 0.583366
51 2 0.930413 0.380292 0.565904
349 2 0.781373 0.0949365 0.993198
511 2 0.846541 0.000460052 0.922864
280 1 0.799982 0.309814 0.507236
552 1 0.99789 0.0484658 0.820908
272 1 0.756156 0.498318 0.679673
424 1 0.838824 0.0558482 0.997511
72 2 0.688566 0.849023 0.271688
191 1 0.645975 0.795327 0.231934
304 2 0.633268 0.707942 0.275381
67 2 0.595356 0.850064 0.233231
384 2 0.570315 0.632671 0.186485
533 1 0.616238 0.617356 0.244393
238 2 0.658353 0.763057 0.145784
12 1 0.556501 0.883918 0.297191
58 2 0.583262 0.942132 0.359926
235 1 0.645083 0.76869 0.0571041
451 1 0.722406 0.57161 0.209846
423 2 0.662486 0.572454 0.201747
412 2 0.716022 0.802578 0.414345
200 1 0.543062 0.871344 0.0460582
167 2 0.530713 0.795261 0.332014
327 1 0.534382 0.593246 0.122301
372 1 0.572844 0.957128 0.445978
387 2 0.716768 0.935012 0.0904048
80 2 0.597927 0.834934 0.0598604
441 2 0.567763 0.566635 0.0441091
103 2 0.615337 0.581144 0.466008
303 2 0.607265 0.557821 0.320498
2 1 0.73564 0.842606 0.333437
456 2 0.512729 0.945602 0.261562
532 1 0.736954 0.729067 0.477681
426 1 0.58702 0.527172 0.401535
403 2 0.51214 0.889209 0.122555
527 2 0.526992 0.550098 0.405454
157 2 0.738081 0.614205 0.29142
473 2 0.578382 0.865514 0.487697
561 1 0.703399 0.913781 0.00433669
400 2 0.687254 0.814803 0.00585865
471 1 0.500703 0.972354 0.172624
6 2 0.629827 0.688418 0.00281488
482 2 0.516565 0.793911 0.00593657
188 2 0.745967 0.633821 0.143048
216 2 0.515724 0.994425 0.45807
477 2 0.509275 0.503258 0.148637
169 2 0.799964 0.736248 0.0461346
465 2 0.832549 0.636239 0.309761
282 1 0.77885 0.672956 0.335188
390 1 0.825606 0.986035 0.167729
495 2 0.770642 0.766099 0.30192
182 1 0.876058 0.817704 0.166474
555 2 0.762378 0.930984 0.349868
275 2 0.833432 0.884226 0.18319
301 2 0.972247 0.774444 0.390881
485 2 0.884534 0.547196 0.21985
165 1 0.961023 0.678542 0.362145
122 2 0.882986 0.81426 0.0732039
192 1 0.985756 0.892281 0.209014
93 1 0.852495 0.76937 0.00539741
443 1 0.878566 0.644213 0.251341
203 2 0.921753 0.628138 0.416725
557 2 0.951557 0.602367 0.0702135
271 1 0.984236 0.874791 0.381447
77 2 0.859381 0.816068 0.38666
132 2 0.772025 0.674598 0.425249
490 2 0.862731 0.720133 0.191188
33 2 0.932664 0.92382 0.393113
461 1 0.772405 0.64542 0.0627971
92 1 0.879846 0.900938 0.42612
347 2 0.930552 0.67661 0.282372
69 2 0.84735 0.985464 0.404117
494 2 0.927753 0.868908 0.202329
564 2 0.812222 0.564431 0.0532029
525 1 0.786936 0.992841 0.412678
385 2 0.777068 0.964153 0.499493
217 1 0.635752 0.779187 0.664824
184 2 0.653303 0.694754 0.706615
218 1 0.624545 0.83701 0.826503
209 1 0.660325 0.595149 0.694992
130 2 0.576084 0.88453 0.869291
125 2 0.682646 0.817788 0.624264
143 2 0.587962 0.767412 0.614024
223 2 0.621308 0.841748 0.735353
339 2 0.677295 0.88346 0.845483
502 2 0.554745 0.924704 0.615851
537 2 0.62225 0.743446 0.859962
467 2 0.676252 0.612353 0.88997
362 1 0.628053 0.659826 0.913959
20 1 0.575017 0.561047 0.800062
52 2 0.625334 0.548042 0.753893
504 2 0.584304 0.592958 0.893646
128 1 0.555111 0.836372 0.568633
240 2 0.644397 0.572831 0.607265
286 2 0.537338 0.625365 0.758673
172 1 0.520134 0.955941 0.685837
62 2 0.718066 0.569179 0.709537
514 1 0.733956 0.92299 0.851258
109 1 0.734875 0.615911 0.900847
298 1 0.561333 0.528033 0.961077
444 1 0.555138 0.971818 0.90744
127 1 0.661734 0.584649 0.521547
258 2 0.503747 0.874631 0.735609
458 2 0.745653 0.921172 0.941874
241 2 0.661956 0.983437 0.982825
452 1 0.741721 0.812758 0.633072
117 2 0.693823 0.986151 0.557898
25 2 0.736844 0.632024 0.991486
265 2 0.689358 0.675806 0.511272
17 2 0.699485 0.507298 0.50701
31 2 0.547719 0.957077 0.994679
68 2 0.502709 0.52632 0.93934
194 2 0.990346 0.735494 0.67478
534 1 0.877582 0.915124 0.90144
353 1 0.925052 0.934397 0.576292
174 1 0.752251 0.985169 0.581857
213 2 0.921123 0.54289 0.938187
28 1 0.879465 0.672211 0.763931
325 1 0.930062 0.627194 0.985525
32 2 0.884664 0.891049 0.518621
78 2 0.873337 0.589379 0.543225
39 1 0.896055 0.510916 0.858113
251 2 0.966782 0.85358 0.769601
276 2 0.871847 0.590455 0.814716
546 2 0.773777 0.8598 0.814605
1 1 0.779615 0.760956 0.792579
567 2 0.931268 0.922261 0.941989
297 2 0.762206 0.527827 0.873857
85 2 0.848986 0.8324 0.93477
551 1 0.983897 0.958383 0.971402
522 2 0.981382 0.896161 0.575435
270 2 0.973042 0.683415 0.942406
312 2 0.763814 0.906818 0.636961
383 2 0.881362 0.906639 0.810604
10 1 0.926057 0.923425 0.7527
119 1 0.927593 0.604802 0.50657
178 2 0.756131 0.755492 0.70755
102 1 0.982531 0.756355 0.762965
283 2 0.871725 0.646175 0.678026
535 2 0.959583 0.678031 0.545175
510 2 0.837375 0.738726 0.787221
234 2 0.753423 0.697489 0.853601
395 2 0.905519 0.932081 0.665447
515 1 0.853726 0.570325 0.628198
450 2 0.763038 0.768833 0.551303
565 2 0.795742 0.549711 0.624216
430 2 0.881634 0.684336 0.980193
63 2 0.934729 0.699907 0.78081
566 2 0.95954 0.518374 0.509102
