LAMMPS (3 Nov 2022)
# LAMMPS input file

variable speed equal 1.0 # K/ps
variable Pi equal 100 # bars
variable Pf equal 1 # bars
variable Tinitl equal 6000 # K
variable Tinter equal 3600 # K
variable Tfinal equal 300 # K
variable durat1 equal floor((${Tinitl}-${Tinter})/${speed})*1000 # ps
variable durat1 equal floor((6000-${Tinter})/${speed})*1000 
variable durat1 equal floor((6000-3600)/${speed})*1000 
variable durat1 equal floor((6000-3600)/1)*1000 
variable durat2 equal floor((${Tinter}-${Tfinal})/${speed})*1000 # ps
variable durat2 equal floor((3600-${Tfinal})/${speed})*1000 
variable durat2 equal floor((3600-300)/${speed})*1000 
variable durat2 equal floor((3600-300)/1)*1000 

units metal
boundary p p p
atom_style full

neighbor 1.0 bin
neigh_modify delay 1

read_data data.SiO
Reading data file ...
  orthogonal box = (0 0 0) to (5.1463944 5.1463944 5.1463944)
  2 by 2 by 2 MPI processor grid
WARNING: Atom style in data file differs from currently defined atom style (../read_data.cpp:588)
  reading atoms ...
  9 atoms
Finding 1-2 1-3 1-4 neighbors ...
  special bond factors lj:    0        0        0       
  special bond factors coul:  0        0        0       
     0 = max # of 1-2 neighbors
     0 = max # of 1-3 neighbors
     0 = max # of 1-4 neighbors
     1 = max # of special neighbors
  special bonds CPU = 0.000 seconds
  read_data CPU = 0.032 seconds
replicate 4 4 4
Replication is creating a 4x4x4 = 64 times larger system...
  orthogonal box = (0 0 0) to (20.585578 20.585578 20.585578)
  2 by 2 by 2 MPI processor grid
  576 atoms
Finding 1-2 1-3 1-4 neighbors ...
  special bond factors lj:    0        0        0       
  special bond factors coul:  0        0        0       
     0 = max # of 1-2 neighbors
     0 = max # of 1-3 neighbors
     0 = max # of 1-4 neighbors
     1 = max # of special neighbors
  special bonds CPU = 0.000 seconds
  replicate CPU = 0.002 seconds

pair_style vashishta
pair_coeff * * SiO.1990.vashishta Si O
Reading vashishta potential file SiO.1990.vashishta with DATE: 2015-10-14

velocity all create ${Tinitl} 4928459 rot yes mom yes dist gaussian
velocity all create 6000 4928459 rot yes mom yes dist gaussian
fix mynvt all nvt temp ${Tinitl} ${Tinitl} 0.1
fix mynvt all nvt temp 6000 ${Tinitl} 0.1
fix mynvt all nvt temp 6000 6000 0.1

dump dmp all atom 10000 dump.lammpstrj

timestep 0.001
thermo 1000
run 20000
Neighbor list info ...
  update: every = 1 steps, delay = 1 steps, check = yes
  max neighbors/atom: 2000, page size: 100000
  master list distance cutoff = 11
  ghost atom cutoff = 11
  binsize = 5.5, bins = 4 4 4
  1 neighbor lists, perpetual/occasional/extra = 1 0 0
  (1) pair vashishta, perpetual
      attributes: full, newton on
      pair build: full/bin
      stencil: full/bin/3d
      bin: standard
Per MPI rank memory allocation (min/avg/max) = 7.042 | 7.042 | 7.042 Mbytes
   Step          Temp          E_pair         E_mol          TotEng         Press     
         0   6000          -2060.8001      0             -1614.8526      779045.54    
      1000   6500.2497     -4421.5653      0             -3938.437       53557.121    
      2000   5961.6103     -4471.1552      0             -4028.061       48784.855    
      3000   5984.1114     -4447.7372      0             -4002.9706      53218.594    
      4000   6376.2076     -4450.8571      0             -3976.9482      43933.065    
      5000   5827.2266     -4446.1947      0             -4013.0885      17966.899    
      6000   6110.5767     -4428.1751      0             -3974.009       33055.89     
      7000   6135.4935     -4470.8665      0             -4014.8485      17883.643    
      8000   5963.7876     -4435.7991      0             -3992.5431      27350.711    
      9000   5862.9756     -4464.892       0             -4029.1288      22274.909    
     10000   6090.4558     -4442.9946      0             -3990.324       42256.951    
     11000   5863.8263     -4443.6995      0             -4007.8731      35999.137    
     12000   5998.3486     -4420.0538      0             -3974.229       11571.19     
     13000   6001.6239     -4414.6317      0             -3968.5635      39039.016    
     14000   5704.1185     -4426.3186      0             -4002.3624      9703.091     
     15000   5928.4235     -4446.2541      0             -4005.6265      25400.06     
     16000   5823.0932     -4447.1257      0             -4014.3267      34401.549    
     17000   6367.9129     -4439.0235      0             -3965.731       42045.88     
     18000   5817.904      -4445.2493      0             -4012.836       31992.69     
     19000   6177.2671     -4436.8761      0             -3977.7533      21736.513    
     20000   6187.3861     -4466.295       0             -4006.4201      35322.457    
Loop time of 19.4808 on 8 procs for 20000 steps with 576 atoms

Performance: 88.703 ns/day, 0.271 hours/ns, 1026.651 timesteps/s, 591.351 katom-step/s
98.3% CPU use with 8 MPI tasks x no OpenMP threads

MPI task timing breakdown:
Section |  min time  |  avg time  |  max time  |%varavg| %total
---------------------------------------------------------------
Pair    | 13.828     | 14.151     | 14.552     |   5.6 | 72.64
Bond    | 0.00069398 | 0.00076626 | 0.00081025 |   0.0 |  0.00
Neigh   | 1.5897     | 1.6254     | 1.6516     |   1.4 |  8.34
Comm    | 3.0854     | 3.51       | 3.8656     |  12.0 | 18.02
Output  | 0.00063685 | 0.0006634  | 0.00082326 |   0.0 |  0.00
Modify  | 0.076115   | 0.078887   | 0.081844   |   0.7 |  0.40
Other   |            | 0.114      |            |       |  0.59

Nlocal:             72 ave          80 max          67 min
Histogram: 2 0 2 1 0 1 0 1 0 1
Nghost:         2139.5 ave        2163 max        2103 min
Histogram: 1 1 1 0 0 0 1 0 0 4
Neighs:              0 ave           0 max           0 min
Histogram: 8 0 0 0 0 0 0 0 0 0
FullNghs:      26455.5 ave       29482 max       24471 min
Histogram: 2 0 3 0 0 1 0 0 1 1

Total # of neighbors = 211644
Ave neighs/atom = 367.4375
Ave special neighs/atom = 0
Neighbor list builds = 2516
Dangerous builds = 0
unfix mynvt

fix mynpt all npt temp ${Tinitl} ${Tinter} 0.1 iso ${Pi} ${Pf} 1
fix mynpt all npt temp 6000 ${Tinter} 0.1 iso ${Pi} ${Pf} 1
fix mynpt all npt temp 6000 3600 0.1 iso ${Pi} ${Pf} 1
fix mynpt all npt temp 6000 3600 0.1 iso 100 ${Pf} 1
fix mynpt all npt temp 6000 3600 0.1 iso 100 1 1

run ${durat1}
run 2400000
Per MPI rank memory allocation (min/avg/max) = 7.043 | 7.044 | 7.044 Mbytes
   Step          Temp          E_pair         E_mol          TotEng         Press          Volume    
     20000   6187.3861     -4466.295       0             -4006.4201      35322.457      8723.4681    
     21000   6173.7398     -4321.4193      0             -3862.5586      1093.8177      10940.252    
     22000   5878.6955     -4309.6327      0             -3872.7012     -987.11147      12101.728    
     23000   6225.2413     -4290.8684      0             -3828.18        10660.388      12550.97     
     24000   5969.9362     -4296.0507      0             -3852.3377     -2796.2825      12940.198    
     25000   6093.4071     -4307.3906      0             -3854.5007      830.32927      12441.39     
     26000   6155.2395     -4297.5617      0             -3840.0761     -8216.7082      13439.145    
     27000   5715.0362     -4260.5014      0             -3835.7337     -7063.8639      14040.077    
     28000   5723.81       -4314.2038      0             -3888.784      -876.25281      13353.56     
     29000   5797.8682     -4282.924       0             -3851.9999     -1202.1492      12476.831    
     30000   6156.9886     -4304.8158      0             -3847.2002     -6155.9696      12100.935    
     31000   5953.0602     -4335.7531      0             -3893.2944      1733.2739      11700.475    
     32000   6182.0627     -4357.7972      0             -3898.318       4427.6212      11801.029    
     33000   6184.8043     -4299.5692      0             -3839.8862      11988.907      12499.931    
     34000   5893.3689     -4336.8814      0             -3898.8592     -1450.9553      12381.46     
     35000   6362.6501     -4345.7537      0             -3872.8524     -14997.361      11758.869    
     36000   6106.1554     -4336.8594      0             -3883.0219      7442.2741      11637.344    
     37000   6485.833      -4315.2424      0             -3833.1855      7394.0769      12253.779    
     38000   5729.593      -4322.1012      0             -3896.2516     -13242.757      12517.256    
     39000   6037.2305     -4298.8528      0             -3850.1382     -19728.891      12170.608    
     40000   5820.6227     -4336.2362      0             -3903.6208     -6910.5074      11585.359    
     41000   5723.8079     -4355.5         0             -3930.0804      7527.7099      11867.87     
     42000   5735.5988     -4321.4465      0             -3895.1505     -4321.752       13039.8      
     43000   6004.3182     -4293.1969      0             -3846.9284     -4185.1505      13011.246    
     44000   5960.3364     -4320.9872      0             -3877.9876     -5505.9261      11841.831    
     45000   6092.1141     -4319.1894      0             -3866.3956     -11420.859      11802.663    
     46000   5981.0396     -4347.8934      0             -3903.3552     -2902.9412      11605.885    
     47000   6253.5177     -4321.8591      0             -3857.069      -4795.1236      12479.908    
     48000   6261.856      -4323.6666      0             -3858.2568      14141.373      11489.263    
     49000   5993.9821     -4326.3347      0             -3880.8345     -15398.545      11754.299    
     50000   5876.5268     -4356.4692      0             -3919.6987     -13040.751      12314.781    
     51000   5783.3009     -4363.1578      0             -3933.3164     -500.58654      11586.093    
     52000   6219.0025     -4341.3379      0             -3879.1131      1180.4226      11431.829    
     53000   6321.2613     -4292.7872      0             -3822.9621     -466.57754      12637.926    
     54000   5761.9997     -4284.1566      0             -3855.8984     -6050.9478      13049.609    
     55000   5860.4555     -4323.2922      0             -3887.7163      106.53391      12023.015    
     56000   5907.9067     -4356.9942      0             -3917.8915     -10415.775      11623.181    
     57000   5915.3129     -4359.4101      0             -3919.7569     -5144.3046      11826.82     
     58000   6043.0511     -4308.6401      0             -3859.4928     -5820.5052      12698.779    
     59000   5892.4184     -4299.5412      0             -3861.5896      4430.4253      12709.797    
     60000   6003.5506     -4337.9566      0             -3891.7452     -14247.582      12620.459    
     61000   6154.4412     -4316.3663      0             -3858.94        14936.638      11403.233    
     62000   5857.6206     -4339.9734      0             -3904.6082      4309.3789      11416.83     
     63000   6038.3842     -4308.4724      0             -3859.672      -4310.7111      12276.598    
     64000   5770.7411     -4297.8171      0             -3868.9092     -6397.0782      12955.792    
     65000   6501.1617     -4321.2631      0             -3838.067       7898.4588      12698.735    
     66000   6162.2572     -4304.4734      0             -3846.4662     -7465.3403      12715.107    
     67000   6427.2012     -4335.5359      0             -3857.8369     -6197.9653      12018.053    
     68000   5701.1572     -4347.1116      0             -3923.3755     -9462.0604      11329.784    
     69000   5699.1264     -4326.2574      0             -3902.6722     -838.06912      11413.798    
     70000   5914.8425     -4321.268       0             -3881.6498      7934.8547      12376.019    
     71000   6009.2449     -4298.7444      0             -3852.1098     -3758.3071      13185.48     
     72000   5875.6271     -4324.0569      0             -3887.3534      3376.073       12292.879    
     73000   5975.9827     -4292.8537      0             -3848.6912      6419.584       12528.292    
     74000   5880.1648     -4330.3778      0             -3893.337      -3872.3895      12419.25     
     75000   6085.3333     -4311.4397      0             -3859.1498      8951.3818      12391.368    
     76000   5443.9977     -4293.0821      0             -3888.4592     -11804.254      14256.841    
     77000   6027.5279     -4270.3447      0             -3822.3512      3559.468       13614.386    
     78000   6116.1007     -4329.8488      0             -3875.2721      6369.9381      12687.748    
     79000   5930.8609     -4350.8125      0             -3910.0037      12564.472      12493.629    
     80000   5815.0904     -4323.6922      0             -3891.488       15990.397      13730.415    
     81000   5888.5999     -4251.8701      0             -3814.2024      10104.349      13442.022    
     82000   5953.757      -4300.6923      0             -3858.1818     -7478.2954      12568.458    
     83000   6247.0779     -4340.6735      0             -3876.362       9340.5609      12183.441    
     84000   5882.7357     -4332.184       0             -3894.9521      1461.2912      12004.556    
     85000   6032.3155     -4348.7847      0             -3900.4354     -655.0693       11943.989    
     86000   5832.6366     -4328.2422      0             -3894.7339     -3296.7792      12408.903    
     87000   6247.6343     -4328.4761      0             -3864.1233     -2923.0425      11981.176    
     88000   5667.4444     -4348.0209      0             -3926.7904      29592.948      11199.166    
     89000   6228.5581     -4320.9712      0             -3858.0362      5065.5538      11878.461    
     90000   6095.3203     -4370.8465      0             -3917.8144      9575.4143      12106.987    
     91000   6082.6277     -4329.8421      0             -3877.7534     -10022.084      12993.572    
     92000   6045.9451     -4388.1284      0             -3938.766      -954.79625      12583.887    
     93000   5781.1714     -4333.7038      0             -3904.0206     -11033.602      11708.017    
     94000   5532.1531     -4350.3431      0             -3939.1681     -9660.9898      11805.184    
     95000   6119.3045     -4367.3366      0             -3912.5218      7905.7685      11600.656    
     96000   5891.5897     -4308.2107      0             -3870.3207     -7989.7374      11928.047    
     97000   6064.9        -4310.8386      0             -3860.0675      3528.2238      12734.651    
     98000   6225.8888     -4265.5109      0             -3802.7743      2693.1022      13270.084    
     99000   6093.2904     -4337.2855      0             -3884.4042      17671.946      12292.299    
    100000   6198.8292     -4299.9265      0             -3839.2011      5648.3613      12352.953    
    101000   6140.429      -4346.0955      0             -3889.7107     -8232.8956      12437.975    
    102000   5669.7064     -4341.9241      0             -3920.5255     -10557.545      12729.552    
    103000   5535.8204     -4305.036       0             -3893.5884     -12464.452      12521.024    
    104000   5738.4999     -4321.8946      0             -3895.3829      12723.986      11656.022    
    105000   5947.2267     -4320.6748      0             -3878.6496     -2039.2725      11516.809    
    106000   6097.8795     -4330.2837      0             -3877.0614     -4032.8445      12910.124    
    107000   5894.5379     -4312.3027      0             -3874.1937      8317.8327      12742.634    
    108000   5866.6498     -4336.1434      0             -3900.1071     -8671.2847      11626.155    
    109000   5804.2676     -4316.1614      0             -3884.7616     -7687.9782      11835.865    
    110000   6028.956      -4333.0175      0             -3884.9178     -8360.7497      12162.045    
    111000   6087.2867     -4371.8601      0             -3919.425       1858.0723      10991.218    
    112000   5947.7562     -4315.142       0             -3873.0775      13977.052      11793.994    
    113000   5800.1794     -4278.9639      0             -3847.868      -4025.129       12856.667    
    114000   6109.6774     -4335.1119      0             -3881.0127      5794.6236      12442.739    
    115000   5518.3724     -4345.753       0             -3935.6023     -14275.041      12089.132    
    116000   6166.3919     -4358.0177      0             -3899.7032      628.09137      11250.285    
    117000   5704.7564     -4362.3889      0             -3938.3853     -12530.946      11914.875    
    118000   5656.7102     -4330.919       0             -3910.4864      6570.8292      11958.549    
    119000   5844.2297     -4331.8496      0             -3897.4797      2219.1705      11571.775    
    120000   6112.748      -4385.4961      0             -3931.1686      6806.4512      11033.952    
    121000   5999.2637     -4323.0877      0             -3877.1949     -185.1255       11480.243    
    122000   5904.0006     -4325.9954      0             -3887.183      -14718.093      11894.432    
    123000   5586.283      -4326.1934      0             -3910.9952      1727.4826      12172.883    
    124000   6263.1038     -4369.138       0             -3903.6355      23501.257      10838.122    
    125000   6062.0843     -4348.3763      0             -3897.8144      1735.8721      11795.46     
    126000   5750.4936     -4344.8688      0             -3917.4658      1259.3451      11901.205    
    127000   5658.3622     -4336.3035      0             -3915.7481     -187.07162      11852.491    
    128000   6091.0148     -4367.0572      0             -3914.3451      8068.2392      11832.268    
    129000   6084.8409     -4356.529       0             -3904.2758     -92.815139      11011.497    
    130000   6015.9247     -4363.5373      0             -3916.4062      11023.39       12291.872    
    131000   5963.6197     -4317.6437      0             -3874.4001     -16479.954      13047.867    
    132000   5982.3059     -4350.7406      0             -3906.1082     -8545.2551      12160.506    
    133000   5969.0861     -4332.8262      0             -3889.1763     -13687.79       11623.063    
    134000   5842.5632     -4366.3454      0             -3932.0993     -13001.027      11180.469    
    135000   6060.3023     -4379.0457      0             -3928.6162      4724.2055      10824.434    
    136000   6027.6883     -4345.079       0             -3897.0735      15443.462      12080.095    
    137000   6018.1466     -4329.4458      0             -3882.1496     -2174.1737      13021.882    
    138000   6290.6961     -4332.4692      0             -3864.9159     -10442.027      13034.743    
    139000   5668.9806     -4337.4623      0             -3916.1177      3590.6856      11915.317    
    140000   5926.3417     -4341.1687      0             -3900.6959      5406.7758      11252.163    
    141000   5434.6635     -4335.247       0             -3931.3179     -2765.2343      11137.25     
    142000   5928.9347     -4295.8827      0             -3855.2171      19001.86       11777.238    
    143000   5845.326      -4309.5327      0             -3875.0813      13497.471      12122.093    
    144000   5858.364      -4350.0897      0             -3914.6693      1454.363       11304.421    
    145000   5570.2569     -4339.8087      0             -3925.8017      151.4625       11477.997    
    146000   5567.3294     -4293.9013      0             -3880.1119      946.76969      11914.419    
    147000   5809.1231     -4370.0858      0             -3938.3252     -5310.9732      11730.759    
    148000   5864.4093     -4359.7265      0             -3923.8567      4560.3514      11896.221    
    149000   5770.9732     -4355.9421      0             -3927.017       13363.445      11086.013    
    150000   5381.8505     -4371.5591      0             -3971.5553     -13081.448      11740.251    
    151000   5828.4847     -4300.2443      0             -3867.0446     -12767.868      13273.486    
    152000   5651.5734     -4325.9513      0             -3905.9005     -5821.2888      13001.005    
    153000   5744.7301     -4313.8142      0             -3886.8395      6140.4137      12382.367    
    154000   5762.0053     -4370.275       0             -3942.0164      21537.675      11254.31     
    155000   5671.079      -4317.2023      0             -3895.7017      2133.0444      11851.38     
    156000   5593.8485     -4361.9287      0             -3946.1683      7275.6096      11255.244    
    157000   5914.2701     -4311.2412      0             -3871.6656      13726.245      11769.117    
    158000   5664.929      -4319.1465      0             -3898.103       3047.9983      11896.203    
    159000   5479.4656     -4347.6556      0             -3940.3966     -14930.359      11080.229    
    160000   5771.6319     -4338.882       0             -3909.9078      3492.5484      11133.6      
    161000   5704.3699     -4392.261       0             -3968.2861     -15805.387      11355.741    
    162000   5917.6173     -4366.753       0             -3926.9286     -1263.148       11329.535    
    163000   6309.8257     -4357.9339      0             -3888.9588     -3448.0602      11467.817    
    164000   5829.3395     -4364.5606      0             -3931.2974      14521.025      11099.568    
    165000   5978.4424     -4353.1424      0             -3908.7971      3676.1149      11719.574    
    166000   5736.9311     -4338.2594      0             -3911.8644      6754.3685      11716.561    
    167000   5916.8876     -4380.1892      0             -3940.419       26097.42       10523.787    
    168000   5525.7282     -4413.5728      0             -4002.8753     -6188.5125      11185.327    
    169000   5498.665      -4353.2012      0             -3944.5152     -8291.0221      12181.663    
    170000   6244.2287     -4348.968       0             -3884.8683      16980.496      12308.598    
    171000   5845.5963     -4355.2611      0             -3920.7896     -2843.4741      11443.224    
    172000   6070.1301     -4350.918       0             -3899.7581      8584.2984      11507.366    
    173000   5803.4192     -4325.3625      0             -3894.0258      5877.3531      11925.551    
    174000   5556.767      -4357.0152      0             -3944.0109     -12019.55       11680.432    
    175000   6094.4831     -4330.7509      0             -3877.7809      4518.4783      11154.241    
    176000   6085.9301     -4359.1247      0             -3906.7904      8678.6728      12315.501    
    177000   5632.6753     -4340.8217      0             -3922.1755     -21880.545      12653.455    
    178000   5797.1587     -4323.0675      0             -3892.1961     -17148.288      12116.314    
    179000   6209.6945     -4373.3536      0             -3911.8207     -9042.8193      11618.366    
    180000   6022.8027     -4370.9         0             -3923.2578      1473.4413      11514.863    
    181000   5625.5936     -4364.8846      0             -3946.7647     -133.47875      12021.175    
    182000   5939.4204     -4367.4076      0             -3925.9626      3039.3602      12415.326    
    183000   5784.7029     -4331.3812      0             -3901.4356      381.83737      11977.538    
    184000   6021.7624     -4363.041       0             -3915.476      -2473.8071      10751.635    
    185000   5553.1165     -4348.2971      0             -3935.564       1087.363       11332.895    
    186000   5859.86       -4365.3005      0             -3929.7689     -9248.3881      11255.579    
    187000   5919.0068     -4361.5003      0             -3921.5725     -15741.546      12197.841    
    188000   6053.5802     -4360.7411      0             -3910.8113     -5948.9807      12181.697    
    189000   5917.8821     -4379.6389      0             -3939.7948     -14620.662      10836.016    
    190000   5781.287      -4341.2168      0             -3911.5251      5371.9408      11460.659    
    191000   5297.2118     -4396.2576      0             -4002.5445     -16130.166      11444.928    
    192000   5942.5772     -4377.9997      0             -3936.3201      3586.9772      11364.602    
    193000   5684.8201     -4330.589       0             -3908.0671      3793.1753      12435.426    
    194000   6029.9344     -4385.5334      0             -3937.361       22464.18       11691.891    
    195000   5623.231      -4342.2726      0             -3924.3283      5475.2382      12014.048    
    196000   6022.5947     -4357.7991      0             -3910.1723     -4653.9032      12079.144    
    197000   5532.0484     -4351.0788      0             -3939.9116     -9813.0372      11437.314    
    198000   5725.6183     -4369.1904      0             -3943.6362      3127.3747      10763.115    
    199000   6013.5699     -4369.4385      0             -3922.4824      12238.275      11363.043    
    200000   5597.1869     -4377.1465      0             -3961.1379      4823.2343      11719.382    
    201000   5380.3673     -4336.3175      0             -3936.4239     -3623.7034      12398.091    
    202000   5780.5498     -4337.6634      0             -3908.0265      9259.6643      11906.492    
    203000   5908.847      -4362.3232      0             -3923.1506      26058.99       11085.594    
    204000   5977.8466     -4327.5789      0             -3883.2779     -16472.034      11395.721    
    205000   5448.2582     -4339.0839      0             -3934.1443     -9254.6365      12269.056    
    206000   6106.8981     -4358.4867      0             -3904.5941      8325.5804      12071.156    
    207000   6054.1564     -4405.6971      0             -3955.7244      4111.2911      10999.498    
    208000   5544.9111     -4354.686       0             -3942.5628     -4342.6478      11360.959    
    209000   6018.5561     -4425.5962      0             -3978.2696      7959.9659      11018.51     
    210000   5719.6119     -4346.7974      0             -3921.6897      16269.496      11759.448    
    211000   5622.7155     -4341.0181      0             -3923.1121     -7675.8814      12758.68     
    212000   6035.4981     -4339.5745      0             -3890.9886     -6856.8294      11505.422    
    213000   6091.527      -4363.123       0             -3910.3728      353.75047      11066.701    
    214000   5926.5015     -4350.9295      0             -3910.4448     -262.25663      11806.607    
    215000   5769.4372     -4370.9955      0             -3942.1845      6951.3582      11537.907    
    216000   5759.7251     -4363.3844      0             -3935.2952      6796.6774      11265.99     
    217000   6068.7614     -4354.1639      0             -3903.1057     -5845.0079      12484.79     
    218000   5701.4617     -4324.3918      0             -3900.633      -1589.9597      12829.733    
    219000   5969.3689     -4351.7446      0             -3908.0738      6754.5998      11389.152    
    220000   5686.5638     -4394.3979      0             -3971.7464      392.0863       10812.27     
    221000   5432.486      -4384.6557      0             -3980.8884      6563.4952      11659.975    
    222000   5981.2468     -4380.0946      0             -3935.5409      5469.7303      12382.875    
    223000   5543.8888     -4338.8755      0             -3926.8282     -6318.8661      12075.571    
    224000   5530.3097     -4354.0604      0             -3943.0224      3810.0835      11703.585    
    225000   5664.7502     -4360.4477      0             -3939.4175     -767.04056      11195.458    
    226000   5580.6725     -4343.3686      0             -3928.5875     -4966.127       11021.45     
    227000   6105.3353     -4320.0971      0             -3866.3206     -14221.017      11831.995    
    228000   5922.972      -4329.8425      0             -3889.6201     -1491.9989      12071.282    
    229000   5866.7961     -4346.6684      0             -3910.6212     -6805.349       11757.407    
    230000   5785.4755     -4356.0195      0             -3926.0164     -12786.529      11495.425    
    231000   5584.6735     -4390.3814      0             -3975.3029      6383.2711      10350.803    
    232000   5796.5598     -4343.6266      0             -3912.7997     -2574.6361      11558.529    
    233000   6097.7619     -4351.0918      0             -3897.8781     -6943.193       11426.247    
    234000   5866.6006     -4376.0762      0             -3940.0436     -10796.035      11601.13     
    235000   5587.8798     -4376.6886      0             -3961.3718      17456.884      11463.477    
    236000   5839.991      -4356.543       0             -3922.4881      10733.565      10600.889    
    237000   5604.2282     -4348.0027      0             -3931.4707     -10562.658      11290.405    
    238000   5811.8741     -4359.745       0             -3927.7799     -13905.659      11768.101    
    239000   5728.3799     -4402.5192      0             -3976.7598     -801.78881      11642.631    
    240000   5714.0724     -4324.4621      0             -3899.7661     -2541.6681      12431.06     
    241000   6163.4418     -4336.1408      0             -3878.0456      20957.739      11989.802    
    242000   5576.1629     -4367.9803      0             -3953.5343      9319.1353      11307.987    
    243000   5643.6513     -4354.5877      0             -3935.1257     -12416.149      11764.863    
    244000   5807.0128     -4373.7351      0             -3942.1313      1288.0814      11654.913    
    245000   5699.0565     -4390.0677      0             -3966.4877     -5806.812       10599.511    
    246000   5866.1008     -4343.2431      0             -3907.2476      2236.1532      11084.972    
    247000   5739.0496     -4369.9284      0             -3943.3759     -7794.5507      11252.407    
    248000   5868.5967     -4386.2938      0             -3950.1128      11283.429      10903.882    
    249000   5602.9196     -4326.1991      0             -3909.7644      12174.305      11352.195    
    250000   5569.2151     -4348.2429      0             -3934.3133     -10211.098      12446.558    
    251000   5779.6223     -4323.6553      0             -3894.0873      2827.9912      11616.61     
    252000   5902.252      -4367.9241      0             -3929.2417      7331.3868      11579.737    
    253000   5745.7489     -4376.6497      0             -3949.5993      345.22684      11434.648    
    254000   6253.3282     -4368.6217      0             -3903.8457      4443.2111      11166.634    
    255000   5519.6107     -4379.4945      0             -3969.2518     -5355.4783      11092.402    
    256000   5467.3879     -4406.9437      0             -4000.5824     -12229.14       10878.608    
    257000   5934.3117     -4387.2426      0             -3946.1774      10280.305      11710.358    
    258000   5775.5542     -4342.8922      0             -3913.6266      4481.8196      12614.156    
    259000   5580.6513     -4361.5914      0             -3946.8119     -950.26371      12482.112    
    260000   5793.5704     -4366.7956      0             -3936.1909     -8331.0309      11662.13     
    261000   6097.349      -4367.0413      0             -3913.8584      1775.2058      11108.891    
    262000   5746.9175     -4379.849       0             -3952.7118      10790.698      11496.116    
    263000   5804.5612     -4390.273       0             -3958.8514      16650.525      10996.872    
    264000   5483.8142     -4367.3609      0             -3959.7787      15797.145      11582.606    
    265000   5866.2372     -4333.7811      0             -3897.7755      11647.517      12193.605    
    266000   5712.1848     -4368.1394      0             -3943.5837      515.68187      11346.845    
    267000   5996.1271     -4393.6073      0             -3947.9477      1190.8394      10805.908    
    268000   5941.8179     -4421.2501      0             -3979.6269     -4161.5082      11188.245    
    269000   5516.5244     -4358.6643      0             -3948.651      -4095.1372      11995.763    
    270000   5346.762      -4356.1537      0             -3958.7579      6190.0292      12597.025    
    271000   5679.7821     -4350.7603      0             -3928.6128     -1619.9812      11966.794    
    272000   5363.2565     -4390.6545      0             -3992.0326      5448.8794      11168.97     
    273000   5859.8583     -4367.3336      0             -3931.8021     -9848.0934      11644.26     
    274000   5943.5474     -4346.1775      0             -3904.4258      15208.454      10929.91     
    275000   5759.6336     -4399.6801      0             -3971.5977      2676.3244      10698.495    
    276000   5896.2528     -4392.55        0             -3954.3134      506.69214      11243.087    
    277000   5872.3827     -4404.975       0             -3968.5126      7497.2537      11030.848    
    278000   5427.8513     -4407.6796      0             -4004.2568     -2280.8169      10586.042    
    279000   5564.3611     -4354.6626      0             -3941.0938     -10411.874      11300.094    
    280000   5981.943      -4312.134       0             -3867.5286      3697.8231      12460.585    
    281000   5707.9632     -4376.1128      0             -3951.8708      2850.5745      12021.395    
    282000   5436.9224     -4352.5828      0             -3948.4858      2898.0287      11307.267    
    283000   5602.0733     -4383.4572      0             -3967.0854     -17465.914      10983.178    
    284000   6145.4584     -4353.8508      0             -3897.0922     -9166.1613      10834.287    
    285000   5716.4714     -4357.7813      0             -3932.9069      2532.7201      11279.718    
    286000   5788.4664     -4363.7996      0             -3933.5743     -7532.719       11127.177    
    287000   5543.6575     -4396.0591      0             -3984.0291      5711.9568      11095.367    
    288000   5940.9134     -4369.9365      0             -3928.3805     -5247.0903      12127.224    
    289000   5678.2903     -4361.0903      0             -3939.0537     -12884.387      11794.978    
    290000   5663.2003     -4428.8509      0             -4007.9359     -5078.8413      10663.1      
    291000   5619.6281     -4351.1107      0             -3933.4341      10341.453      11530.725    
    292000   5739.212      -4365.8193      0             -3939.2548      11749.281      12304.608    
    293000   5350.167      -4340.2103      0             -3942.5613     -530.23753      12100.613    
    294000   5793.4388     -4344.4516      0             -3913.8567     -15903.523      11622.179    
    295000   5854.8221     -4408.3343      0             -3973.1771     -7116.4539      10494.887    
    296000   6194.1897     -4346.3494      0             -3885.9688     -15779.79       11839.956    
    297000   5630.6862     -4360.122       0             -3941.6236      6201.8613      11438.62     
    298000   5638.0874     -4398.4422      0             -3979.3938      5367.1028      10957.34     
    299000   5696.2352     -4362.8476      0             -3939.4773     -13600.032      11532.916    
    300000   5714.7347     -4380.6767      0             -3955.9315      8689.9671      11787.984    
    301000   5851.4595     -4347.9482      0             -3913.0409      8356.9103      12169.072    
    302000   5633.3094     -4392.7043      0             -3974.011      -3314.97        11127.081    
    303000   5948.9424     -4380.721       0             -3938.5683      7663.2621      11057.651    
    304000   5746.1629     -4362.4044      0             -3935.3232     -118.27572      11719.013    
    305000   5814.1694     -4404.593       0             -3972.4572     -11252.08       11280.888    
    306000   6131.3322     -4392.8555      0             -3937.1468      9315.442       10427.11     
    307000   5649.5007     -4429.1336      0             -4009.2368     -10185.344      11098.244    
    308000   5947.535      -4383.4339      0             -3941.3858     -9483.3645      11243.414    
    309000   5782.6035     -4383.8111      0             -3954.0215      6217.18        11081.885    
    310000   5976.6269     -4338.5856      0             -3894.3753      13284.047      12070.304    
    311000   5710.5149     -4365.2254      0             -3940.7937     -3172.4413      11428.793    
    312000   5691.6865     -4440.1133      0             -4017.0811      11917.332      10460.771    
    313000   5943.04       -4418.6112      0             -3976.8972      4253.2416      10815.16     
    314000   5791.2746     -4439.9309      0             -4009.4968     -3937.7698      10988.975    
    315000   5916.1379     -4378.4936      0             -3938.7792     -9336.5717      10942.762    
    316000   5498.7955     -4378.3927      0             -3969.6971      6299.3188      11662.027    
    317000   5531.1141     -4378.26        0             -3967.1622      10147.778      11881.13     
    318000   5772.4433     -4373.7711      0             -3944.7366     -19258.665      12096.031    
    319000   5659.1567     -4382.364       0             -3961.7495      6999.9194      11387.992    
    320000   5675.3004     -4398.9668      0             -3977.1524     -976.79554      10521.132    
    321000   5210.2196     -4370.9618      0             -3983.7144     -3013.4054      11392.964    
    322000   6226.4777     -4359.9928      0             -3897.2124      9851.0262      11409.604    
    323000   5740.7028     -4409.5352      0             -3982.8599      320.02984      10909.657    
    324000   5763.9345     -4368.1953      0             -3939.7933     -11132.687      11483.256    
    325000   5879.2913     -4347.6431      0             -3910.6673      2728.2432      12114.121    
    326000   5604.8929     -4349.976       0             -3933.3946      36.326873      11002.087    
    327000   5809.8445     -4390.2991      0             -3958.4848      1716.2069      10953.65     
    328000   5593.4265     -4410.734       0             -3995.0049      2000.5177      10822.467    
    329000   5931.6263     -4351.1811      0             -3910.3154     -7762.8556      12010.768    
    330000   5627.767      -4376.8513      0             -3958.5699      2564.181       11802.115    
    331000   5484.2203     -4348.4136      0             -3940.8013     -6436.6055      11319.754    
    332000   5687.3977     -4390.6517      0             -3967.9382      1957.4109      11258.563    
    333000   5428.545      -4380.2796      0             -3976.8052      3383.4552      10706.03     
    334000   5957.8946     -4358.0138      0             -3915.1957     -1940.3207      12084.579    
    335000   5374.1507     -4378.6577      0             -3979.2261     -10691.485      11892.342    
    336000   5709.145      -4374.0918      0             -3949.762       3251.9828      11025.477    
    337000   5667.4243     -4395.6501      0             -3974.4212     -685.32666      10525.393    
    338000   5753.4408     -4385.2229      0             -3957.6008     -4034.8043      11450.532    
    339000   5758.8643     -4378.317       0             -3950.2918      3769.0105      11712.587    
    340000   5694.2068     -4385.0258      0             -3961.8062      19879.728      11151.999    
    341000   5692.9806     -4371.2916      0             -3948.1632     -6024.0498      11213.095    
    342000   5553.4192     -4388.6593      0             -3975.9037      14689.062      12099.559    
    343000   5366.9953     -4347.1352      0             -3948.2355     -15041.615      11646.843    
    344000   5693.7195     -4391.5315      0             -3968.3482      16256.072      11359.7      
    345000   5519.7424     -4322.2351      0             -3911.9825     -9387.7147      12649.747    
    346000   6029.9555     -4362.6627      0             -3914.4888      3321.9792      11180.073    
    347000   5640.2984     -4394.7794      0             -3975.5666     -6070.8726      10974.495    
    348000   5535.9692     -4392.9887      0             -3981.5301     -13062.346      10640.735    
    349000   5520.3283     -4390.309       0             -3980.0129     -5301.5786      11167.478    
    350000   5713.9814     -4373.6539      0             -3948.9646     -9108.2308      11479.866    
    351000   5390.3054     -4371.5561      0             -3970.9239     -5202.3621      11373.303    
    352000   5506.7545     -4359.7545      0             -3950.4673     -14640.234      11449.531    
    353000   5676.8771     -4412.0491      0             -3990.1176     -10931.523      10962.342    
    354000   5888.6273     -4386.9106      0             -3949.2408      28915.525      11395.131    
    355000   5805.9977     -4403.576       0             -3972.0476     -9038.2414      11420.474    
    356000   5761.0792     -4406.2751      0             -3978.0853     -3475.3112      10958.908    
    357000   5713.4396     -4343.7713      0             -3919.1223      15500.258      11179.228    
    358000   5836.5391     -4360.1153      0             -3926.317      -3372.6774      11866.557    
    359000   5652.8453     -4422.5947      0             -4002.4493      4928.0186      11431.4      
    360000   5659.6503     -4379.7595      0             -3959.1084      4508.6738      11309.437    
    361000   5743.4315     -4416.8728      0             -3989.9946     -15927.899      10472.07     
    362000   5544.4152     -4416.6581      0             -4004.5718      14849.005      10705.925    
    363000   5653.9434     -4378.0507      0             -3957.8237     -13233.495      11237.156    
    364000   5897.7971     -4354.0677      0             -3915.7163     -840.78576      11833.542    
    365000   5728.3932     -4387.9526      0             -3962.1922      5699.8342      11245.414    
    366000   5460.0898     -4451.9064      0             -4046.0875      6278.7119      10379.83     
    367000   5405.7        -4390.8695      0             -3989.0931      5568.0703      11124.699    
    368000   5580.7103     -4403.0815      0             -3988.2975     -6443.9992      10914.338    
    369000   5466.7815     -4426.3963      0             -4020.0801      2407.6356      10479.393    
    370000   5637.2131     -4403.776       0             -3984.7925      11002.709      10995.452    
    371000   5826.7048     -4344.1039      0             -3911.0365     -7138.2736      12025        
    372000   5783.3093     -4386.1964      0             -3956.3543      9735.4698      11743.218    
    373000   5737.7005     -4410.7287      0             -3984.2765      22664.574      10549.683    
    374000   5546.487      -4392.7657      0             -3980.5254      10328.968      11016.231    
    375000   5762.3304     -4381.3659      0             -3953.0831      14392.953      11347.575    
    376000   5678.3144     -4335.5138      0             -3913.4755      10.00682       12082.621    
    377000   5530.9968     -4404.2523      0             -3993.1633     -5454.9218      11422.994    
    378000   5827.1115     -4402.6395      0             -3969.5419      3841.8536      11143.437    
    379000   5531.7264     -4428.2574      0             -4017.1142     -13443.147      10542.629    
    380000   5487.5797     -4410.4439      0             -4002.5818      2879.2557      10743.612    
    381000   5346.9344     -4358.2676      0             -3960.859      -18439.234      11957.252    
    382000   5807.1244     -4400.1673      0             -3968.5552     -5186.6172      10767.491    
    383000   5737.4953     -4397.1941      0             -3970.7571      10108.053      10627.784    
    384000   5587.9314     -4376.9759      0             -3961.6552     -6207.9304      11114.726    
    385000   5199.3254     -4357.9483      0             -3971.5106     -8215.9537      11195.865    
    386000   5689.8046     -4431.387       0             -4008.4946      3189.8853      10570.324    
    387000   5442.089      -4410.6867      0             -4006.2057      21805.42       10630.676    
    388000   5359.2004     -4348.7379      0             -3950.4176     -8544.3268      11792.552    
    389000   5363.8537     -4374.8719      0             -3976.2057      13382.193      11243.306    
    390000   5694.1292     -4391.4914      0             -3968.2776     -1391.3717      11206.105    
    391000   5882.8326     -4416.9324      0             -3979.6933      8769.516       10982.081    
    392000   5971.5329     -4405.4527      0             -3961.621      -10657.639      10947.5      
    393000   5665.7133     -4337.0456      0             -3915.9438      1080.7485      11154.39     
    394000   5742.7577     -4386.2081      0             -3959.38        735.05403      10916.368    
    395000   5685.0066     -4397.6123      0             -3975.0766      6389.6715      10307.657    
    396000   5438.7098     -4390.7074      0             -3986.4776     -9890.7537      11354.342    
    397000   5377.8871     -4359.1237      0             -3959.4144     -15193.452      11224.447    
    398000   5915.8232     -4412.0153      0             -3972.3242      4146.7416      11491.874    
    399000   5765.2223     -4410.0852      0             -3981.5874      18786.77       11296.738    
    400000   5531.8214     -4410.3528      0             -3999.2025      1969.8048      10637.55     
    401000   5563.2877     -4384.6568      0             -3971.1677     -12872.483      11263.116    
    402000   5583.0841     -4375.7813      0             -3960.8209     -4614.4126      11631.058    
    403000   5339.3323     -4416.5414      0             -4019.6978      3869.4317      10968.206    
    404000   5839.4439     -4413.4121      0             -3979.3979      6675.411       10632.361    
    405000   5849.3657     -4377.7511      0             -3942.9995     -2327.3005      10871.039    
    406000   5346.8161     -4414.5491      0             -4017.1492     -11401.066      10590.134    
    407000   5668.7611     -4428.8474      0             -4007.519      -7096.3989      11196.802    
    408000   5282.9811     -4400.0931      0             -4007.4377     -13771.562      11091.367    
    409000   5542.2654     -4463.9522      0             -4052.0257      5841.6376      10342.514    
    410000   5884.5785     -4423.6579      0             -3986.289       2640.4506      11043.984    
    411000   5541.1156     -4387.352       0             -3975.5109      3373.6763      11428.582    
    412000   5863.3928     -4403.2951      0             -3967.5009      16524.402      11220.409    
    413000   5816.0378     -4392.135       0             -3959.8604      4337.4981      11167.192    
    414000   5801.522      -4383.662       0             -3952.4663      3256.1918      11403.053    
    415000   5590.2773     -4394.3504      0             -3978.8554      7598.4817      11286.404    
    416000   5518.4334     -4366.8929      0             -3956.7376      18305.287      11266.319    
    417000   5201.7457     -4406.0852      0             -4019.4676     -4599.0112      11251.765    
    418000   5799.2052     -4396.1768      0             -3965.1533     -1552.5162      10849.333    
    419000   5627.1221     -4407.5491      0             -3989.3155     -15418.004      10977.478    
    420000   5189.2195     -4435.4541      0             -4049.7675      2670.5222      10645.947    
    421000   5814.806      -4407.1856      0             -3975.0026      3437.1506      11495.908    
    422000   5227.2087     -4372.8584      0             -3984.3483      3284.125       11391.924    
    423000   5417.4614     -4413.2402      0             -4010.5897     -8844.1603      10853.929    
    424000   5955.7498     -4388.7675      0             -3946.1089     -6234.3117      11330.3      
    425000   5723.6186     -4394.6147      0             -3969.2092      4186.9999      11093.774    
    426000   5263.8324     -4369.1462      0             -3977.914      -6459.1487      11801.987    
    427000   5463.9878     -4362.0439      0             -3955.9353     -9288.9217      11519.588    
    428000   5655.7084     -4434.4304      0             -4014.0722     -3794.7969      10859.595    
    429000   5825.9634     -4402.149       0             -3969.1367      4719.5954      11620.711    
    430000   5715.3964     -4410.5743      0             -3985.7798     -21.766434      11455.488    
    431000   5553.663      -4382.1573      0             -3969.3836      6272.8133      10470.691    
    432000   5696.1061     -4362.222       0             -3938.8613      16656.93       10892.782    
    433000   5420.1043     -4408.8097      0             -4005.9627     -3630.8468      10841.56     
    434000   5607.7823     -4404.6054      0             -3987.8093     -16649.215      10959.312    
    435000   5452.9148     -4437.0625      0             -4031.7769     -571.36546      10751.338    
    436000   5638.6696     -4420.1201      0             -4001.0283      814.20057      11054.869    
    437000   5381.7145     -4417.1978      0             -4017.2041      5363.8881      11133.144    
    438000   5225.5263     -4402.248       0             -4013.8629      6842.405       10620.703    
    439000   5529.6273     -4379.4801      0             -3968.4929      10082.49       11139.804    
    440000   5496.1915     -4384.3439      0             -3975.8418      8280.3992      11230.269    
    441000   5518.611      -4410.4594      0             -4000.291       3390.5168      10614.435    
    442000   5868.2075     -4387.4009      0             -3951.2488     -13795.965      10781.428    
    443000   5345.7787     -4396.7975      0             -3999.4747     -12846.537      11375.632    
    444000   5783.5831     -4378.6557      0             -3948.7933     -2164.5859      11114.583    
    445000   5349.8362     -4410.399       0             -4012.7746      3914.8886      10293.984    
    446000   5585.6826     -4383.8228      0             -3968.6693     -9613.4324      11427.668    
    447000   5311.1972     -4404.2673      0             -4009.5148     -12651.149      11591.291    
    448000   5484.8816     -4376.8045      0             -3969.143       3293.2505      11252.917    
    449000   5383.9856     -4398.7129      0             -3998.5504     -642.67771      10799.26     
    450000   5457.1577     -4370.8985      0             -3965.2975      1092.769       11294.454    
    451000   5414.7579     -4397.7786      0             -3995.329      -5851.7702      11203.462    
    452000   5639.4051     -4376.6866      0             -3957.5402     -4083.577       11330.857    
    453000   5499.2353     -4439.5923      0             -4030.864       3434.6724      10830.822    
    454000   5623.4069     -4412.2294      0             -3994.2721      1163.04        10519.712    
    455000   5311.0856     -4440.5745      0             -4045.8303     -11184.022      11287.703    
    456000   5866.7114     -4379.2521      0             -3943.2112      2711.1862      11486.236    
    457000   5215.8801     -4389.9857      0             -4002.3176      5096.2204      11056.85     
    458000   5614.5552     -4416.2248      0             -3998.9254     -4671.4819      11044.832    
    459000   5227.9026     -4397.4036      0             -4008.8419     -6108.6637      11379.79     
    460000   5643.9547     -4395.6453      0             -3976.1608      8845.455       10471.497    
    461000   5513.7644     -4391.0817      0             -3981.2734     -24434.305      11228.439    
    462000   5503.0316     -4377.3627      0             -3968.3521      2991.5544      11606.434    
    463000   5560.5053     -4395.6742      0             -3982.3919      18403.542      11635.421    
    464000   5741.8694     -4417.7901      0             -3991.0281     -2722.118       11037.334    
    465000   5719.0884     -4402.1064      0             -3977.0376      13948.53       11423.275    
    466000   5660.4962     -4420.6286      0             -3999.9146      21073.956      11516.637    
    467000   5263.2343     -4435.9155      0             -4044.7278     -423.63006      10705.85     
    468000   5668.7519     -4397.4459      0             -3976.1183      7603.342       11166.324    
    469000   5413.3675     -4407.9867      0             -4005.6404      4178.2658      11562.588    
    470000   5475.1527     -4403.1531      0             -3996.2146      6880.2524      11071.667    
    471000   5491.5649     -4432.499       0             -4024.3407      9779.211       11081.293    
    472000   5617.418      -4412.6296      0             -3995.1173      13103.541      11120.937    
    473000   5578.9534     -4430.3112      0             -4015.6578      16651.996      10420.98     
    474000   5665.1202     -4403.6941      0             -3982.6364      9392.8258      11353.772    
    475000   5627.5574     -4431.919       0             -4013.6531      8316.723       10862.712    
    476000   5523.308      -4443.6125      0             -4033.095      -594.7815       10989.599    
    477000   5579.3609     -4389.772       0             -3975.0883     -8351.3212      11318.582    
    478000   5631.9047     -4420.0676      0             -4001.4786     -20348.997      10606.388    
    479000   5885.1927     -4415.7216      0             -3978.3071     -1663.1538      10181.377    
    480000   5288.0733     -4400.5339      0             -4007.5001     -5096.7931      10965.955    
    481000   5401.5642     -4408.1257      0             -4006.6567     -8454.9248      11027.407    
    482000   5748.0531     -4418.5295      0             -3991.3078      13219.027      10879.678    
    483000   5622.0352     -4438.9126      0             -4021.0571     -1393.4308      10606.435    
    484000   5489.1775     -4380.6481      0             -3972.6673      7326.1284      11002.048    
    485000   5438.8557     -4364.6582      0             -3960.4175     -11999.902      12332.371    
    486000   5524.36       -4400.9639      0             -3990.3681     -6407.2856      10886.949    
    487000   5214.0689     -4437.1166      0             -4049.5831      9895.1187      10606.895    
    488000   5319.3162     -4409.0925      0             -4013.7365     -6372.6258      11163.073    
    489000   5845.3913     -4397.5831      0             -3963.1268      6002.8508      11150.98     
    490000   5370.945      -4382.0312      0             -3982.838      -3446.5601      11168.174    
    491000   5620.4732     -4388.8928      0             -3971.1534      9910.642       11083.276    
    492000   5677.1451     -4401.2354      0             -3979.2839     -9065.0307      11701.596    
    493000   5381.4447     -4390.4218      0             -3990.4482     -4989.2689      11109.482    
    494000   5415.7024     -4436.3883      0             -4033.8685      8040.8758      10767.723    
    495000   5661.5471     -4392.5445      0             -3971.7523      7762.5202      10954.644    
    496000   5518.8734     -4406.7441      0             -3996.5562     -8756.0777      10384.087    
    497000   5856.182      -4416.309       0             -3981.0507      10997.109      10772.905    
    498000   5590.6938     -4424.0986      0             -4008.5726      21025.658      10415.406    
    499000   5358.1562     -4444.6422      0             -4046.3994     -20803.485      10931.778    
    500000   5426.4524     -4382.2982      0             -3978.9794      15393.577      11513.003    
    501000   5236.8942     -4442.8481      0             -4053.6181     -8566.4124      10940.305    
    502000   5519.2557     -4428.7433      0             -4018.5269     -9981.4127      10366.784    
    503000   5810.8582     -4397.7984      0             -3965.9088     -3240.1741      11176.364    
    504000   5917.8062     -4367.7         0             -3927.8615      3512.8324      11703.574    
    505000   5570.8539     -4406.9269      0             -3992.8755     -1629.4355      11610.677    
    506000   5456.6702     -4430.3697      0             -4024.805       3321.2776      10374.593    
    507000   5082.9336     -4447.1895      0             -4069.4026      3265.4757      10445.905    
    508000   5792.0739     -4412.753       0             -3982.2595     -19840.644      11153.001    
    509000   5596.683      -4402.927       0             -3986.9559     -1748.6013      11336.372    
    510000   5419.5648     -4413.7734      0             -4010.9665     -14565.503      10962.869    
    511000   5438.066      -4441.0628      0             -4036.8808      17831.376      10857.282    
    512000   5397.2587     -4366.513       0             -3965.364      -759.97894      11709.929    
    513000   5663.7598     -4412.8151      0             -3991.8585      4347.8243      11429.778    
    514000   5712.8765     -4437.421       0             -4012.8139     -4607.41        10759.971    
    515000   5806.1659     -4382.279       0             -3950.7381     -968.75086      11038.742    
    516000   5455.8684     -4418.6232      0             -4013.1181      148.01305      10902.627    
    517000   5430.1468     -4373.6137      0             -3970.0203     -18309.664      11051.756    
    518000   5473.6366     -4438.5941      0             -4031.7683     -1284.9617      10184.873    
    519000   5673.5083     -4404.3921      0             -3982.711       2353.9153      10695.705    
    520000   5574.498      -4428.8299      0             -4014.5077      6941.4861      10950.733    
    521000   5372.4371     -4412.8744      0             -4013.5703     -11837.235      10987.068    
    522000   5555.5281     -4434.6967      0             -4021.7843      5471.3882      10741.543    
    523000   5393.4808     -4438.9002      0             -4038.032      -6941.0225      10580.572    
    524000   5675.0639     -4395.5116      0             -3973.7148     -7546.6322      11219.89     
    525000   5823.1945     -4403.9573      0             -3971.1508     -9914.9339      10748.768    
    526000   5414.1658     -4419.5377      0             -4017.1321     -8657.4545      10745.284    
    527000   5776.8306     -4462.9662      0             -4033.6057      4310.123       10337.224    
    528000   5905.2418     -4405.4863      0             -3966.5816      1909.4486      10960.785    
    529000   5508.4104     -4425.5814      0             -4016.1711     -5055.1225      11617.372    
    530000   5689.0629     -4371.7308      0             -3948.8935     -5381.1048      12365.454    
    531000   5625.9468     -4398.1268      0             -3979.9807     -6433.3139      11812.963    
    532000   5994.9677     -4451.6218      0             -4006.0483      16269.046      10116.792    
    533000   5287.6738     -4457.4055      0             -4064.4013      2587.5219      10389.644    
    534000   5433.0468     -4422.5652      0             -4018.7563     -2126.0212      10766.242    
    535000   5571.0501     -4351.0077      0             -3936.9417      5179.2075      11758.408    
    536000   5320.7928     -4385.0844      0             -3989.6186     -2531.7044      11445.776    
    537000   5455.7658     -4405.6854      0             -4000.1878     -4678.3682      11206.462    
    538000   5521.539      -4429.0426      0             -4018.6565      15228.653      10738.109    
    539000   5469.6638     -4446.9576      0             -4040.4271      9977.1271      11002.97     
    540000   5579.4903     -4425.3875      0             -4010.6942      10846.533      10735.844    
    541000   5085.0605     -4416.7769      0             -4038.8319     -1225.77        11711.761    
    542000   5475.8409     -4374.6555      0             -3967.6659      6708.2094      12395.897    
    543000   5356.9492     -4383.6768      0             -3985.5237      1124.062       12084.062    
    544000   5514.5279     -4403.9353      0             -3994.0703     -1556.9609      11207.282    
    545000   5381.225      -4430.793       0             -4030.8357     -5039.5092      10964.073    
    546000   5580.339      -4402.9795      0             -3988.2232     -5134.4111      10514.971    
    547000   5600.8831     -4415.3789      0             -3999.0956      769.96753      11319.811    
    548000   5738.2204     -4420.6425      0             -3994.1517      8815.9124      10888.528    
    549000   5315.1932     -4435.9149      0             -4040.8653     -10644.419      10633.171    
    550000   5501.27       -4458.658       0             -4049.7784      8774.3752      10645.093    
    551000   5345.6398     -4373.8559      0             -3976.5435     -5792.5904      12450.538    
    552000   5362.1081     -4412.4671      0             -4013.9307      6022.2629      11500.444    
    553000   5741.0315     -4414.6629      0             -3987.9631      3432.6383      11358.575    
    554000   5258.4994     -4395.9928      0             -4005.1571     -4906.1549      11912.021    
    555000   5674.5173     -4419.771       0             -3998.0149      23669.828      11139.284    
    556000   5201.1945     -4370.4235      0             -3983.8469      62.790649      11881.495    
    557000   5310.597      -4401.8214      0             -4007.1135      2807.7188      11815.659    
    558000   5159.1659     -4434.0265      0             -4050.5736     -2835.2169      10968.847    
    559000   5660.5147     -4466.6577      0             -4045.9423      5639.5308      10430.377    
    560000   5696.1155     -4441.1063      0             -4017.7449      4161.7745      10265.743    
    561000   5540.5684     -4375.9462      0             -3964.1457      98.794207      11983.217    
    562000   5452.9641     -4392.2572      0             -3986.968       1184.8311      11757.27     
    563000   5404.7699     -4433.4575      0             -4031.7502      3132.3257      10885.774    
    564000   5645.0538     -4449.8132      0             -4030.247       620.16198      10582.852    
    565000   5421.0654     -4398.6609      0             -3995.7424      6845.0634      10614.734    
    566000   5473.1423     -4442.819       0             -4036.03        94.286134      11733.561    
    567000   5696.1195     -4373.1799      0             -3949.8182     -853.1287       11000.997    
    568000   5561.123      -4443.972       0             -4030.6439      15571.07       10457.039    
    569000   5507.9119     -4434.8666      0             -4025.4934     -1169.7477      11353.502    
    570000   5733.5727     -4405.9808      0             -3979.8354     -9230.7348      11354.146    
    571000   5491.5612     -4435.2078      0             -4027.0498      1050.1845      10131.639    
    572000   5298.123      -4410.7499      0             -4016.9691      8276.3074      10669.324    
    573000   5605.9929     -4402.3045      0             -3985.6414      4574.3945      10725.189    
    574000   5577.9445     -4434.6126      0             -4020.0342     -8146.1295      10995.789    
    575000   5587.8154     -4445.5044      0             -4030.1924     -7475.1335      11701.686    
    576000   5591.7723     -4422.3702      0             -4006.7641     -9849.8653      11188.467    
    577000   5702.5901     -4450.9237      0             -4027.0811     -3313.7247      10578.603    
    578000   5722.6859     -4434.1376      0             -4008.8014     -2599.5346      10441.636    
    579000   5559.2978     -4462.9643      0             -4049.7718      8391.9812      10384.496    
    580000   5398.8332     -4433.7501      0             -4032.4841      19634.955      11117.603    
    581000   5300.8376     -4410.5122      0             -4016.5297     -16537.99       11413.358    
    582000   5252.0353     -4418.1434      0             -4027.7881     -6646.2842      10727.705    
    583000   5497.3215     -4469.8553      0             -4061.2691      18655.271      10298.436    
    584000   5434.3783     -4450.6928      0             -4046.7849     -12341.48       10823.648    
    585000   5745.5675     -4428.4406      0             -4001.4037      5181.2492      10792.703    
    586000   5672.4258     -4454.8015      0             -4033.2008     -4153.6801      10273.359    
    587000   5493.8102     -4452.6967      0             -4044.3715     -969.96524      10346.52     
    588000   5626.3088     -4440.1963      0             -4022.0233     -6432.7428      10938.83     
    589000   5324.8869     -4465.8237      0             -4070.0537     -10098.776      11142.092    
    590000   5394.7033     -4470.7703      0             -4069.8112      993.11426      10260.509    
    591000   5605.4139     -4466.4216      0             -4049.8016     -7460.3302      10122.765    
    592000   5498.3083     -4442.5432      0             -4033.8837      10657.318      11040.433    
    593000   5287.4483     -4446.495       0             -4053.5076     -16464.852      10450.771    
    594000   5640.0604     -4425.15        0             -4005.9549     -3479.6283      10882.037    
    595000   5460.1122     -4430.9371      0             -4025.1166     -927.79469      10730.913    
    596000   5713.1725     -4436.4076      0             -4011.7784      5300.5738      11224.531    
    597000   5395.1535     -4426.7439      0             -4025.7514      11555.978      10446.883    
    598000   5510.4764     -4410.3238      0             -4000.7599      9246.7615      10748.835    
    599000   5094.8311     -4437.1799      0             -4058.5087     -4222.7025      10792.766    
    600000   5288.414      -4429.8847      0             -4036.8256      7881.2199      10966.25     
    601000   5102.7008     -4461.3847      0             -4082.1285      20801.907      10554.16     
    602000   5424.8754     -4451.5179      0             -4048.3163      3706.9729      10029.296    
    603000   5760.353      -4417.688       0             -3989.5522     -22048.758      10778.139    
    604000   5335.0231     -4448.725       0             -4052.2017     -6617.2197      10884.966    
    605000   5307.8999     -4415.5795      0             -4021.072       19003.553      10206.118    
    606000   5244.3569     -4432.116       0             -4042.3314      7904.6312      10387.286    
    607000   5565.0536     -4446.3394      0             -4032.7191     -3604.8514      10670.273    
    608000   5154.8402     -4462.2412      0             -4079.1099      449.61296      10335.886    
    609000   5697.8677     -4468.6172      0             -4045.1255      4189.8927      10252.872    
    610000   5701.3031     -4418.9953      0             -3995.2484      387.17335      11028.096    
    611000   5440.4903     -4423.0562      0             -4018.694       3288.5353      11273.6      
    612000   5368.1316     -4456.9646      0             -4057.9805      863.45268      11093.366    
    613000   5303.3781     -4443.2798      0             -4049.1084      7581.5535      10532.132    
    614000   5616.494      -4393.1526      0             -3975.7091     -8123.5706      11140.056    
    615000   5499.7431     -4427.866       0             -4019.0999     -7628.4828      10736.179    
    616000   5365.8199     -4469.1485      0             -4070.3362     -4802.5079      10685.828    
    617000   5301.2282     -4395.1668      0             -4001.1553     -731.97962      10627.993    
    618000   5699.3993     -4457.2913      0             -4033.6858     -5220.6312      10482.505    
    619000   5724.203      -4449.1597      0             -4023.7107      8307.1593      10560.467    
    620000   5405.4261     -4425.4794      0             -4023.7234      801.05763      11122.963    
    621000   5139.0781     -4404.8364      0             -4022.8766      6208.8696      11234.793    
    622000   5360.4869     -4423.234       0             -4024.818       882.84066      11385.916    
    623000   5389.5543     -4441.2239      0             -4040.6475      10226.242      10395.579    
    624000   5797.9775     -4452.6562      0             -4021.724      -19170.032      10626.394    
    625000   5325.7594     -4424.8171      0             -4028.9823     -14302.003      10792.809    
    626000   5158.5025     -4470.3111      0             -4086.9075      3693.4983      10184.804    
    627000   5398.5281     -4433.8573      0             -4032.614       13531.776      10846.383    
    628000   5457.2296     -4419.7493      0             -4014.1429     -6342.041       11411.241    
    629000   5445.4278     -4450.9393      0             -4046.2101      21103.696      10735.615    
    630000   5366.3425     -4442.2839      0             -4043.4327      2319.3868      10725.146    
    631000   5368.5729     -4433.7956      0             -4034.7787      18386.677      10749.128    
    632000   5489.4957     -4460.6904      0             -4052.6859     -3643.0265      10629.755    
    633000   5228.6021     -4419.2733      0             -4030.6596     -12251.804      10975.267    
    634000   5303.4727     -4469.9782      0             -4075.7998     -3077.6779      10282.462    
    635000   5442.4091     -4433.3969      0             -4028.8921     -2348.7611      10866.382    
    636000   5333.9465     -4470.664       0             -4074.2207     -4391.7662      11162.496    
    637000   5538.3073     -4453.4019      0             -4041.7695     -2174.5456      10865.242    
    638000   5622.9941     -4453.8993      0             -4035.9726     -12054.431      10189.62     
    639000   5402.3156     -4461.6849      0             -4060.1601      1407.8813      11088.514    
    640000   5137.1337     -4390.2209      0             -4008.4056      16093.534      11567.24     
    641000   5029.4709     -4435.4809      0             -4061.6676     -5908.9004      11144.497    
    642000   5063.1311     -4469.3408      0             -4093.0257      9159.0796      10633.233    
    643000   5587.3953     -4438.6771      0             -4023.3963      442.45627      10424.877    
    644000   5494.2028     -4451.8805      0             -4043.5262      11629.151      10717.018    
    645000   5232.0845     -4432.5495      0             -4043.677      -4604.7022      10960.556    
    646000   5664.3549     -4478.9145      0             -4057.9137      12507.204      10354.569    
    647000   5259.8524     -4428.591       0             -4037.6547     -4627.6634      10133.159    
    648000   5261.6155     -4451.579       0             -4060.5117     -18648.28       10807.944    
    649000   5899.811      -4425.5848      0             -3987.0838      5907.3381      10494.2      
    650000   5266.8168     -4424.1128      0             -4032.6589     -208.45856      11081.184    
    651000   5181.7121     -4443.8033      0             -4058.6747      7569.9337      10850.165    
    652000   5474.0098     -4431.2983      0             -4024.4448      15092.478      10340.984    
    653000   5550.7224     -4465.396       0             -4052.8409      8628.3429      10633.614    
    654000   5486.8696     -4420.0813      0             -4012.272      -9509.9056      10970.938    
    655000   5449.0245     -4451.9603      0             -4046.9638     -7442.8379      10469.279    
    656000   5508.5954     -4489.156       0             -4079.7319      4770.9361      10387.15     
    657000   5300.4243     -4445.696       0             -4051.7442      1102.4727      10414.909    
    658000   5416.9613     -4462.914       0             -4060.3006      15198.326      10910.692    
    659000   5305.2607     -4430.3825      0             -4036.0712     -4415.7061      11062.407    
    660000   5332.7484     -4422.9594      0             -4026.6051     -4866.8148      10922.483    
    661000   5338.0085     -4448.7388      0             -4051.9935     -9051.1418      10552.753    
    662000   5421.6063     -4420.6839      0             -4017.7253     -2968.8652      10621.977    
    663000   5350.1484     -4444.6229      0             -4046.9753      25156.634      10138.119    
    664000   5365.3672     -4408.316       0             -4009.5373     -8667.0174      10414.384    
    665000   5219.7622     -4429.4044      0             -4041.4477     -225.08932      11454.086    
    666000   5216.0228     -4451.1609      0             -4063.4822     -12093.842      10607.905    
    667000   5394.6011     -4469.8553      0             -4068.9039      1652.7356      10200.485    
    668000   5257.4649     -4441.9481      0             -4051.1892      7665.1944      10126.33     
    669000   5241.1913     -4450.4162      0             -4060.8669      16297.925      10570.888    
    670000   5267.9299     -4447.411       0             -4055.8743      1047.973       11219.118    
    671000   5560.869      -4410.5595      0             -3997.2503     -3060.66        10950.471    
    672000   5218.3928     -4450.0898      0             -4062.235      -1205.0194      10468.476    
    673000   5306.8552     -4449.8525      0             -4055.4227      8920.4558      9899.7179    
    674000   5215.0692     -4458.1256      0             -4070.5177      12097.251      10312.862    
    675000   5656.0827     -4433.5469      0             -4013.1609      1864.3005      11540.173    
    676000   5064.176      -4427.0939      0             -4050.7011     -8321.5994      10981.075    
    677000   5175.2695     -4473.257       0             -4088.6073     -4657.9544      10199.37     
    678000   5046          -4455.1433      0             -4080.1015     -9865.0656      10588.76     
    679000   5408.205      -4416.2113      0             -4014.2487      16697.107      10796.233    
    680000   5073.7267     -4464.947       0             -4087.8444     -11727.014      10634.995    
    681000   5209.7221     -4482.9277      0             -4095.7173     -14227.443      10253.354    
    682000   5003.4695     -4482.5999      0             -4110.7191     -9761.3796      10592.062    
    683000   5237.4539     -4443.7165      0             -4054.4449     -5784.0457      11008.01     
    684000   5205.1878     -4432.3545      0             -4045.4811      7693.3086      11410.516    
    685000   5532.4737     -4451.5469      0             -4040.348       4221.4671      10236.359    
    686000   5190.6345     -4453.455       0             -4067.6633     -771.13686      10599.17     
    687000   5835.8985     -4443.1248      0             -4009.3741     -7248.1028      11369.466    
    688000   5445.1736     -4439.3935      0             -4034.6832     -6391.2242      10288.39     
    689000   5227.7773     -4479.8379      0             -4091.2855     -8316.0317      10261.878    
    690000   5443.2458     -4450.8276      0             -4046.2606     -2885.314       10709.467    
    691000   5514.2855     -4475.0449      0             -4065.1979      6599.7999      10290.555    
    692000   5247.2796     -4439.6249      0             -4049.6231     -5906.1265      10207.459    
    693000   5415.4698     -4452.5083      0             -4050.0058     -16728.079      10920.494    
    694000   5457.3424     -4455.737       0             -4050.1223     -11767.909      10531.42     
    695000   5411.1225     -4477.5695      0             -4075.3901      4618.4729      10518.428    
    696000   5460.4118     -4401.7657      0             -3995.9229     -8583.36        10826.878    
    697000   5257.1993     -4411.3683      0             -4020.6292     -15209.803      10985.732    
    698000   5198.7171     -4458.7639      0             -4072.3714     -16873.542      10280.567    
    699000   5303.052      -4447.4869      0             -4053.3398     -3024.5862      10817.597    
    700000   5224.007      -4407.0815      0             -4018.8094      2998.3652      11190.523    
    701000   5188.7845     -4459.8198      0             -4074.1656      5150.7746      10490.012    
    702000   5241.7098     -4443.3382      0             -4053.7503     -425.1445       11203.326    
    703000   5144.7075     -4465.8438      0             -4083.4656      4872.2333      10384.211    
    704000   5599.6116     -4449.4542      0             -4033.2654      15203.241      10550.347    
    705000   5098.918      -4462.7899      0             -4083.815       16358.199      10551.829    
    706000   5174.9026     -4473.531       0             -4088.9085     -20531.774      10746.71     
    707000   5262.7916     -4441.8223      0             -4050.6676     -10826.259      10241.061    
    708000   5343.6025     -4433.924       0             -4036.763      -11211.46       10661.145    
    709000   5083.9529     -4482.9554      0             -4105.0927      858.76073      10161.437    
    710000   5274.7333     -4471.4668      0             -4079.4244      7131.4985      10499.363    
    711000   5319.7202     -4465.7042      0             -4070.3182      1076.1609      10118.511    
    712000   5334.4281     -4467.0538      0             -4070.5746     -17671.162      10807.942    
    713000   5576.1423     -4457.5677      0             -4043.1232      11656.591      11091.137    
    714000   5369.2002     -4456.6001      0             -4057.5365      7293.1491      10607.58     
    715000   5251.5662     -4406.1349      0             -4015.8144      19797.53       11125.122    
    716000   5423.111      -4462.7637      0             -4059.6933      5368.3382      10729.759    
    717000   5305.5623     -4454.0914      0             -4059.7577      5956.9712      11375.631    
    718000   5752.5854     -4447.1677      0             -4019.6092     -4143.0751      11427.138    
    719000   5226.848      -4485.1066      0             -4096.6233      8684.8274      10500.308    
    720000   5380.6004     -4454.1377      0             -4054.2268     -26334.448      10376.012    
    721000   5465.3028     -4504.7131      0             -4098.5067      11175.839      10116.926    
    722000   5437.5819     -4437.6886      0             -4033.5426     -7904.0255      10846.899    
    723000   5300.9311     -4462.5602      0             -4068.5707     -3367.9798      10697.371    
    724000   5265.55       -4406.5697      0             -4015.2099     -3931.8696      11157.102    
    725000   5144.6666     -4460.9998      0             -4078.6246      7118.7651      10410.468    
    726000   4849.5853     -4476.5083      0             -4116.0649      2020.3626      10230.031    
    727000   5362.0081     -4437.1965      0             -4038.6675     -5614.8772      10664.514    
    728000   5162.8874     -4405.261       0             -4021.5316     -5788.3758      11541.964    
    729000   5257.4441     -4425.982       0             -4035.2247      4557.4256      11336.534    
    730000   5296.0012     -4432.1466      0             -4038.5235     -5681.3891      10912.514    
    731000   5194.6119     -4444.2746      0             -4058.1873     -389.14607      10592.483    
    732000   5141.8979     -4446.1647      0             -4063.9953     -6518.9057      10534.991    
    733000   4945.3821     -4465.7774      0             -4098.214      -10840.349      10499.11     
    734000   5433.3506     -4469.062       0             -4065.2305      20365.975      10472.518    
    735000   5383.139      -4448.1243      0             -4048.0247      11985.214      10235.619    
    736000   5016.1493     -4447.1425      0             -4074.3193     -4182.1477      10851.425    
    737000   5388.9519     -4447.0822      0             -4046.5506     -2631.73        10531.487    
    738000   5375.1495     -4471.4675      0             -4071.9617     -2038.9575      10114.907    
[...]
   5539000   461.54803     -5173.5669      0             -5139.2626     -2571.6922      7507.5167    
   5540000   484.35792     -5174.836       0             -5138.8363     -6616.2949      7498.9869    
   5541000   480.20201     -5172.6502      0             -5136.9594      5417.6516      7447.624     
   5542000   461.61905     -5175.2318      0             -5140.9221      3090.6071      7445.07      
   5543000   475.66667     -5175.6414      0             -5140.2877      2931.0487      7463.2075    
   5544000   473.41496     -5173.5803      0             -5138.3939     -5808.9554      7544.3086    
   5545000   460.61026     -5176.145       0             -5141.9103     -14590.682      7566.2871    
   5546000   495.3975      -5175.0323      0             -5138.2121     -3244.9698      7484.3586    
   5547000   461.42817     -5177.4643      0             -5143.1689     -2450.6333      7462.3595    
   5548000   472.91157     -5175.8088      0             -5140.6599      4602.6294      7444.5306    
   5549000   480.76979     -5174.0107      0             -5138.2777     -5518.0933      7480.9621    
   5550000   456.23391     -5175.568       0             -5141.6586      6110.0999      7507.2964    
   5551000   487.15407     -5174.1218      0             -5137.9143     -5612.8424      7510.2127    
   5552000   470.85264     -5175.6991      0             -5140.7032     -4699.5397      7489.4642    
   5553000   475.28941     -5173.1061      0             -5137.7804      3418.3912      7446.6687    
   5554000   434.55616     -5174.1485      0             -5141.8503      1764.3934      7483.158     
   5555000   474.8562      -5174.2265      0             -5138.933      -4112.882       7518.0429    
   5556000   431.99559     -5177.1364      0             -5145.0285     -8966.8922      7490.7855    
   5557000   472.07049     -5176.0191      0             -5140.9326     -795.04362      7478.0517    
   5558000   443.18694     -5176.4882      0             -5143.5486      5678.8712      7481.8098    
   5559000   461.13982     -5174.764       0             -5140.49       -4843.9847      7479.3058    
   5560000   454.39711     -5175.7723      0             -5141.9994     -2253.1199      7519.7723    
   5561000   448.89894     -5176.2085      0             -5142.8443     -4101.1433      7512.5885    
   5562000   462.73309     -5175.359       0             -5140.9666      1868.9164      7455.6636    
   5563000   418.35459     -5175.9369      0             -5144.8428      4733.1198      7457.5086    
   5564000   465.11188     -5175.9663      0             -5141.397       675.37773      7491.8992    
   5565000   474.1712      -5176.5196      0             -5141.277       83.750715      7508.9711    
   5566000   452.38856     -5175.6609      0             -5142.0373      1793.7989      7486.646     
   5567000   450.17985     -5175.5861      0             -5142.1266     -6340.3855      7478.161     
   5568000   415.3305      -5176.8948      0             -5146.0255      5549.7137      7450.9093    
   5569000   452.65643     -5176.2379      0             -5142.5944      2254.0354      7453.5578    
   5570000   411.43676     -5179.1637      0             -5148.5838      1415.1422      7496.7025    
   5571000   452.71286     -5175.2512      0             -5141.6035     -4801.1799      7494.2812    
   5572000   441.69212     -5176.7779      0             -5143.9494      2124.0213      7485.2868    
   5573000   482.80435     -5176.7479      0             -5140.8636      5328.3176      7456.8243    
   5574000   450.11779     -5178.1684      0             -5144.7136      4907.6317      7462.7451    
   5575000   462.69983     -5174.9335      0             -5140.5435      575.69377      7477.3834    
   5576000   439.44168     -5175.7017      0             -5143.0403      886.25046      7497.4779    
   5577000   431.09858     -5177.4195      0             -5145.3783      1689.3872      7480.5623    
   5578000   434.76479     -5175.4173      0             -5143.1036      950.5661       7442.9074    
   5579000   436.60003     -5180.3845      0             -5147.9344     -770.28235      7471.3224    
   5580000   451.99222     -5178.3185      0             -5144.7244     -1931.1847      7491.9416    
   5581000   447.96164     -5176.8196      0             -5143.5251     -768.16616      7486.7869    
   5582000   434.63764     -5177.9769      0             -5145.6726     -1176.6693      7512.9907    
   5583000   445.42555     -5175.2367      0             -5142.1306     -1205.34        7480.55      
   5584000   446.62671     -5177.5789      0             -5144.3836      2887.7465      7478.0009    
   5585000   417.91591     -5178.437       0             -5147.3756     -5983.6608      7489.7009    
   5586000   435.87569     -5177.1172      0             -5144.7209     -3149.1323      7479.5429    
   5587000   426.48233     -5180.4017      0             -5148.7036      1617.1169      7485.5662    
   5588000   408.66353     -5177.8486      0             -5147.4749      333.89802      7474.0525    
   5589000   467.98198     -5176.4617      0             -5141.6791     -977.77026      7489.3403    
   5590000   425.83221     -5179.4362      0             -5147.7864     -8596.9345      7483.7191    
   5591000   452.34115     -5179.8626      0             -5146.2425      121.57214      7474.0591    
   5592000   444.30777     -5176.5304      0             -5143.5074      300.59821      7456.3778    
   5593000   413.61058     -5178.3132      0             -5147.5718      2502.7413      7465.7737    
   5594000   438.84133     -5175.0985      0             -5142.4818      5429.448       7492.7704    
   5595000   418.50543     -5178.9729      0             -5147.8677     -4510.0567      7508.4034    
   5596000   428.3498      -5178.1093      0             -5146.2723     -1885.8391      7470.7663    
   5597000   398.59187     -5177.6213      0             -5147.9961     -3012.63        7485.6986    
   5598000   413.41501     -5177.578       0             -5146.8511      3773.3091      7461.8632    
   5599000   426.5636      -5180.9099      0             -5149.2057     -3713.5038      7463.5723    
   5600000   408.94024     -5180.0567      0             -5149.6624     -2159.9434      7491.1063    
   5601000   421.23968     -5178.18        0             -5146.8716     -3507.6324      7506.6069    
   5602000   394.49757     -5178.8887      0             -5149.5679     -10497.442      7482.129     
   5603000   430.66127     -5178.3371      0             -5146.3284      7156.7704      7452.1528    
   5604000   385.25225     -5181.1615      0             -5152.5278     -1137.766       7476.4233    
   5605000   416.70545     -5178.2733      0             -5147.3018     -1064.5795      7469.3124    
   5606000   381.11307     -5178.2048      0             -5149.8787     -6946.432       7493.0655    
   5607000   425.30295     -5180.4374      0             -5148.827       3829.915       7483.9062    
   5608000   398.03996     -5178.9227      0             -5149.3385      2278.2856      7440.948     
   5609000   397.96971     -5178.3647      0             -5148.7858      5075.985       7448.177     
   5610000   408.48847     -5181.4575      0             -5151.0968     -5452.1259      7515.0006    
   5611000   414.98608     -5179.0817      0             -5148.238      -4244.536       7523.3817    
   5612000   398.80496     -5180.8665      0             -5151.2255      6510.4575      7459.0593    
   5613000   429.79407     -5180.2215      0             -5148.2772      5947.2545      7436.2604    
   5614000   403.37449     -5182.2448      0             -5152.2642     -10011.955      7486.2374    
   5615000   409.16854     -5178.3018      0             -5147.8905      1507.1976      7521.5134    
   5616000   406.94818     -5181.2582      0             -5151.012      -100.9727       7510.1325    
   5617000   426.83348     -5179.4052      0             -5147.6809      5403.81        7434.9484    
   5618000   403.89678     -5179.404       0             -5149.3845     -2966.8745      7457.9567    
   5619000   413.03476     -5181.8228      0             -5151.1241      931.28229      7472.7127    
   5620000   421.68129     -5179.4981      0             -5148.1568     -2741.1847      7481.248     
   5621000   401.3925      -5181.2271      0             -5151.3937     -1247.922       7497.531     
   5622000   391.60205     -5180.462       0             -5151.3563      1184.9019      7450.746     
   5623000   407.80009     -5180.7078      0             -5150.3982      1184.0734      7440.9499    
   5624000   383.11703     -5180.6934      0             -5152.2184     -1337.4826      7479.7936    
   5625000   418.90022     -5180.9613      0             -5149.8267     -2037.7539      7501.8376    
   5626000   390.83407     -5180.5296      0             -5151.481       2767.8498      7471.9053    
   5627000   397.73565     -5181.007       0             -5151.4455      3751.4363      7425.7295    
   5628000   408.68744     -5180.8444      0             -5150.4688      3440.3494      7489.0188    
   5629000   399.36696     -5182.1771      0             -5152.4943      466.58886      7513.8094    
   5630000   383.42175     -5181.2109      0             -5152.7132     -2934.6441      7452.7083    
   5631000   394.71363     -5180.6886      0             -5151.3516      10874.207      7438.0374    
   5632000   385.24142     -5182.3442      0             -5153.7113      4539.1845      7475.8002    
   5633000   399.04809     -5180.5862      0             -5150.9271      5584.241       7461.4276    
   5634000   400.24792     -5182.4456      0             -5152.6973     -3839.5464      7463.3595    
   5635000   406.18513     -5182.9224      0             -5152.7328      3622.5565      7449.0018    
   5636000   414.56582     -5182.2849      0             -5151.4725     -681.45516      7462.9482    
   5637000   381.85436     -5181.0117      0             -5152.6306      3496.2537      7453.0236    
   5638000   406.09509     -5182.7232      0             -5152.5404      3804.7021      7480.2146    
   5639000   394.33641     -5181.2738      0             -5151.9649     -1591.0647      7482.5266    
   5640000   381.85334     -5181.7073      0             -5153.3262     -791.9078       7460.9759    
   5641000   377.29411     -5181.9636      0             -5153.9214      3003.6252      7450.9325    
   5642000   358.05162     -5180.1624      0             -5153.5504      4892.0654      7460.0547    
   5643000   368.68768     -5183.0705      0             -5155.6679      683.09599      7474.6651    
   5644000   386.60709     -5182.0262      0             -5153.2918      118.11798      7485.5159    
   5645000   360.93553     -5181.9095      0             -5155.0831      1414.281       7474.7254    
   5646000   394.57621     -5180.9948      0             -5151.6681     -2171.9499      7458.7409    
   5647000   369.44285     -5182.5895      0             -5155.1308      6592.1365      7433.2362    
   5648000   367.81538     -5183.4491      0             -5156.1114     -9058.2397      7458.6598    
   5649000   342.11669     -5182.5975      0             -5157.1698     -3472.1559      7469.9773    
   5650000   390.22855     -5182.9546      0             -5153.951       2265.8212      7462.9576    
   5651000   371.03407     -5182.2468      0             -5154.6699     -4450.7444      7480.6838    
   5652000   361.29844     -5182.8408      0             -5155.9874      175.31338      7473.6831    
   5653000   384.80943     -5183.2029      0             -5154.6021      945.69418      7465.6951    
   5654000   365.26262     -5182.8432      0             -5155.6952     -888.08643      7467.1192    
   5655000   353.33841     -5183.3661      0             -5157.1043     -1125.8744      7460.466     
   5656000   392.1438      -5184.199       0             -5155.0531     -1869.7955      7462.5862    
   5657000   352.04852     -5183.134       0             -5156.9681     -6009.0984      7492.9935    
   5658000   371.92292     -5183.5951      0             -5155.952       9227.7346      7453.6747    
   5659000   356.23795     -5183.2405      0             -5156.7633      1491.6354      7447.873     
   5660000   359.83644     -5185.3495      0             -5158.6048      4045.4324      7469.2446    
   5661000   373.39985     -5183.6792      0             -5155.9264     -5435.2177      7483.3789    
   5662000   377.183       -5183.1697      0             -5155.1358     -3559.3969      7460.0653    
   5663000   358.59141     -5184.6479      0             -5157.9957      3363.7432      7457.1971    
   5664000   348.98047     -5184.058       0             -5158.1202      193.22822      7446.1693    
   5665000   377.09511     -5183.2262      0             -5155.1988      6852.3347      7447.9307    
   5666000   348.59787     -5184.2134      0             -5158.3041     -6019.4443      7483.1512    
   5667000   364.69816     -5182.6669      0             -5155.5609      654.27653      7447.6651    
   5668000   358.34077     -5185.2492      0             -5158.6156     -2007.2821      7452.3896    
   5669000   349.35263     -5184.2417      0             -5158.2762      3596.4015      7451.7682    
   5670000   346.83785     -5184.8703      0             -5159.0918     -2970.9915      7457.9105    
   5671000   360.68166     -5183.0179      0             -5156.2104     -3915.762       7467.8523    
   5672000   333.46146     -5185.3751      0             -5160.5907     -8178.9985      7492.7262    
   5673000   342.07649     -5183.8495      0             -5158.4248     -2859.8684      7470.6741    
   5674000   339.46858     -5185.7027      0             -5160.4718      2389.8765      7414.9176    
   5675000   361.10254     -5183.9285      0             -5157.0897      3524.5338      7438.651     
   5676000   334.02577     -5184.0207      0             -5159.1944     -3125.3396      7486.5012    
   5677000   372.92973     -5184.7934      0             -5157.0755      4025.9174      7464.3539    
   5678000   325.97295     -5184.5179      0             -5160.2901      63.783256      7453.0576    
   5679000   347.51853     -5184.6163      0             -5158.7871     -2966.2409      7448.4019    
   5680000   329.09298     -5184.4767      0             -5160.017      -606.314        7433.8347    
   5681000   330.38547     -5184.606       0             -5160.0502      5153.3344      7447.0039    
   5682000   353.83881     -5185.3988      0             -5159.0999     -4106.4         7473.6252    
   5683000   318.75564     -5185.4661      0             -5161.7747     -3153.0652      7496.2517    
   5684000   335.29454     -5186.3222      0             -5161.4016     -3233.9692      7468.8502    
   5685000   351.11302     -5185.9109      0             -5159.8145      675.39762      7418.8965    
   5686000   328.32876     -5187.2945      0             -5162.8916     -1434.0718      7450.7754    
   5687000   347.39869     -5185.8061      0             -5159.9858      3044.9925      7458.9159    
   5688000   325.69065     -5186.4395      0             -5162.2327     -5233.3091      7493.8664    
   5689000   333.97169     -5186.2448      0             -5161.4225     -5856.359       7463.2135    
   5690000   323.52733     -5186.1879      0             -5162.1419      4671.8048      7440.9648    
   5691000   347.01184     -5185.682       0             -5159.8905      2300.6491      7418.8216    
   5692000   332.75052     -5186.9469      0             -5162.2153     -5099.1146      7459.6166    
   5693000   348.99694     -5186.155       0             -5160.216      -5712.1018      7496.0616    
   5694000   322.49003     -5185.8598      0             -5161.8909      190.29032      7498.1378    
   5695000   298.56602     -5187.0097      0             -5164.8189      2219.3421      7440.8762    
   5696000   335.15594     -5186.2744      0             -5161.3641      16266.505      7418.8916    
   5697000   320.36679     -5187.5615      0             -5163.7504      801.1035       7465.8       
   5698000   323.49701     -5185.5687      0             -5161.5249      115.58146      7482.0428    
   5699000   325.78312     -5187.036       0             -5162.8223      86.247489      7465.1153    
   5700000   338.10438     -5186.3487      0             -5161.2193     -2201.5193      7474.3039    
   5701000   335.14276     -5188.369       0             -5163.4597      685.58198      7453.703     
   5702000   331.7734      -5184.8095      0             -5160.1506      3171.9264      7431.1464    
   5703000   321.68353     -5187.1128      0             -5163.2038     -755.3545       7459.54      
   5704000   320.9953      -5187.0224      0             -5163.1645     -4238.1824      7492.9595    
   5705000   305.75418     -5187.0654      0             -5164.3403      3939.2584      7485.9436    
   5706000   331.72517     -5186.8781      0             -5162.2228     -2209.7738      7458.5718    
   5707000   324.41096     -5186.9304      0             -5162.8187      4931.5608      7474.5814    
   5708000   308.3242      -5187.7019      0             -5164.7858     -3106.045       7482.0679    
   5709000   316.61453     -5187.1837      0             -5163.6515     -1298.6079      7439.5046    
   5710000   310.5338      -5187.9338      0             -5164.8535      5353.4564      7440.9443    
   5711000   298.0683      -5187.4069      0             -5165.2531     -6676.4442      7488.5689    
   5712000   296.43544     -5187.2392      0             -5165.2068     -1136.3937      7458.351     
   5713000   296.86697     -5187.2631      0             -5165.1986     -3412.0242      7458.4904    
   5714000   304.12771     -5188.4778      0             -5165.8736     -1548.3732      7458.9713    
   5715000   318.764       -5186.9865      0             -5163.2945     -730.03696      7435.392     
   5716000   305.1279      -5188.5846      0             -5165.9061      2163.7066      7433.8161    
   5717000   309.1192      -5186.7289      0             -5163.7537      3442.1505      7429.713     
   5718000   296.64691     -5187.705       0             -5165.6569      1951.4283      7470.6668    
   5719000   301.10449     -5189.0972      0             -5166.7177      105.7527       7452.9932    
   5720000   304.55521     -5187.3938      0             -5164.7579     -1968.143       7395.1112    
Loop time of 3227.15 on 8 procs for 3300000 steps with 576 atoms

Performance: 88.350 ns/day, 0.272 hours/ns, 1022.574 timesteps/s, 589.003 katom-step/s
97.9% CPU use with 8 MPI tasks x no OpenMP threads

MPI task timing breakdown:
Section |  min time  |  avg time  |  max time  |%varavg| %total
---------------------------------------------------------------
Pair    | 2422.4     | 2504.9     | 2713.8     | 180.7 | 77.62
Bond    | 0.10204    | 0.113      | 0.14089    |   3.4 |  0.00
Neigh   | 128.11     | 131.15     | 137.76     |  25.3 |  4.06
Comm    | 315.8      | 531.56     | 616.95     | 404.9 | 16.47
Output  | 0.098679   | 0.10221    | 0.1251     |   2.7 |  0.00
Modify  | 39.607     | 39.973     | 40.354     |   4.4 |  1.24
Other   |            | 19.32      |            |       |  0.60

Nlocal:             72 ave          80 max          68 min
Histogram: 3 0 1 1 1 0 1 0 0 1
Nghost:        2476.25 ave        2508 max        2440 min
Histogram: 1 1 2 0 0 0 0 0 3 1
Neighs:              0 ave           0 max           0 min
Histogram: 8 0 0 0 0 0 0 0 0 0
FullNghs:      31163.5 ave       35026 max       29029 min
Histogram: 2 1 1 2 0 0 0 1 0 1

Total # of neighbors = 249308
Ave neighs/atom = 432.82639
Ave special neighs/atom = 0
Neighbor list builds = 210673
Dangerous builds = 0

write_data silica.data
System init for write_data ...
write_dump all atom amorphous_silica.lammpstrj
Total wall time: 1:27:41
