ITEM: TIMESTEP
0
ITEM: NUMBER OF ATOMS
66
ITEM: BOX BOUNDS pp pp pp
-2.3407027419979162e+01 2.3407027419979162e+01
-8.7776352824922288e+00 8.7776352824922288e+00
-8.7776352824922288e+00 8.7776352824922288e+00
ITEM: ATOMS id type xs ys zs
2 5 0.0215112 0.443037 0.5
8 5 0.0514168 0.443037 0.5
12 5 0.111228 0.443037 0.5
15 5 0.171039 0.443037 0.5
19 5 0.23085 0.443037 0.5
22 5 0.290661 0.443037 0.5
26 5 0.350472 0.443037 0.5
29 5 0.410283 0.443037 0.5
33 5 0.470094 0.443037 0.5
36 5 0.529906 0.443037 0.5
40 5 0.589717 0.443037 0.5
43 5 0.649528 0.443037 0.5
47 5 0.709339 0.443037 0.5
50 5 0.76915 0.443037 0.5
54 5 0.828961 0.443037 0.5
5 7 0.991606 0.443037 0.5
57 5 0.888772 0.443037 0.5
61 5 0.948583 0.443037 0.5
64 5 0.978489 0.443037 0.5
1 3 0.0215112 0.5 0.5
3 5 0.0215112 0.556963 0.5
6 3 0.0514168 0.5 0.5
7 5 0.0514168 0.556963 0.5
9 4 0.0813223 0.5 0.5
10 3 0.111228 0.5 0.5
11 5 0.111228 0.556963 0.5
65 6 0.00839433 0.5 0.5
66 7 0.00839433 0.556963 0.5
13 3 0.171039 0.5 0.5
14 5 0.171039 0.556963 0.5
16 4 0.200945 0.5 0.5
17 3 0.23085 0.5 0.5
18 5 0.23085 0.556963 0.5
20 3 0.290661 0.5 0.5
21 5 0.290661 0.556963 0.5
23 4 0.320567 0.5 0.5
24 3 0.350472 0.5 0.5
25 5 0.350472 0.556963 0.5
27 3 0.410283 0.5 0.5
28 5 0.410283 0.556963 0.5
30 4 0.440189 0.5 0.5
31 3 0.470094 0.5 0.5
32 5 0.470094 0.556963 0.5
34 3 0.529906 0.5 0.5
35 5 0.529906 0.556963 0.5
37 4 0.559811 0.5 0.5
38 3 0.589717 0.5 0.5
39 5 0.589717 0.556963 0.5
41 3 0.649528 0.5 0.5
42 5 0.649528 0.556963 0.5
44 4 0.679433 0.5 0.5
45 3 0.709339 0.5 0.5
46 5 0.709339 0.556963 0.5
48 3 0.76915 0.5 0.5
49 5 0.76915 0.556963 0.5
51 4 0.799055 0.5 0.5
52 3 0.828961 0.5 0.5
53 5 0.828961 0.556963 0.5
4 6 0.991606 0.5 0.5
55 3 0.888772 0.5 0.5
56 5 0.888772 0.556963 0.5
58 4 0.918678 0.5 0.5
59 3 0.948583 0.5 0.5
60 5 0.948583 0.556963 0.5
62 3 0.978489 0.5 0.5
63 5 0.978489 0.556963 0.5
ITEM: TIMESTEP
10
ITEM: NUMBER OF ATOMS
66
ITEM: BOX BOUNDS pp pp pp
-2.3407027419979162e+01 2.3407027419979162e+01
-8.7776352824922288e+00 8.7776352824922288e+00
-8.7776352824922288e+00 8.7776352824922288e+00
ITEM: ATOMS id type xs ys zs
2 5 0.0215814 0.442635 0.5
8 5 0.0514172 0.443037 0.5
12 5 0.111228 0.443037 0.5
15 5 0.171039 0.443037 0.5
19 5 0.23085 0.443037 0.5
22 5 0.290661 0.443037 0.5
26 5 0.350472 0.443037 0.5
29 5 0.410283 0.443037 0.5
33 5 0.470094 0.443037 0.5
36 5 0.529906 0.443037 0.5
40 5 0.589717 0.443037 0.5
43 5 0.649528 0.443037 0.5
47 5 0.709339 0.443037 0.5
50 5 0.76915 0.443037 0.5
54 5 0.828961 0.443037 0.5
5 7 0.991606 0.443037 0.5
57 5 0.888772 0.443037 0.5
61 5 0.948583 0.443037 0.5
64 5 0.978417 0.442632 0.5
1 3 0.0369448 0.500038 0.499998
3 5 0.0215826 0.557367 0.5
6 3 0.0514199 0.499982 0.500001
7 5 0.0514172 0.556963 0.5
9 4 0.0813223 0.5 0.499997
10 3 0.111228 0.499996 0.500006
11 5 0.111228 0.556963 0.5
65 6 0.0114712 0.500014 0.5
66 7 0.00839359 0.556963 0.5
13 3 0.171039 0.500017 0.5
14 5 0.171039 0.556963 0.5
16 4 0.200945 0.499987 0.5
17 3 0.23085 0.500002 0.499995
18 5 0.23085 0.556963 0.5
20 3 0.290661 0.499998 0.5
21 5 0.290661 0.556963 0.5
23 4 0.320567 0.499989 0.499892
24 3 0.350473 0.499856 0.50017
25 5 0.350472 0.556963 0.5
27 3 0.410283 0.500486 0.499939
28 5 0.410283 0.556963 0.5
30 4 0.440189 0.499666 0.500002
31 3 0.470095 0.500003 0.5
32 5 0.470094 0.556963 0.5
34 3 0.529905 0.499989 0.5
35 5 0.529906 0.556963 0.5
37 4 0.559811 0.499186 0.499982
38 3 0.589717 0.501025 0.499436
39 5 0.589717 0.556963 0.5
41 3 0.649527 0.500209 0.501416
42 5 0.649528 0.556963 0.5
44 4 0.679433 0.499619 0.499514
45 3 0.709339 0.499972 0.499651
46 5 0.709339 0.556963 0.5
48 3 0.76915 0.499997 0.5
49 5 0.76915 0.556963 0.5
51 4 0.799055 0.500008 0.500005
52 3 0.828961 0.499991 0.499995
53 5 0.828961 0.556963 0.5
4 6 0.988529 0.499977 0.5
55 3 0.888772 0.500011 0.499998
56 5 0.888772 0.556963 0.5
58 4 0.918678 0.499992 0.500002
59 3 0.94858 0.500014 0.499999
60 5 0.948583 0.556963 0.5
62 3 0.963055 0.499976 0.500001
63 5 0.978419 0.557365 0.5
ITEM: TIMESTEP
20
ITEM: NUMBER OF ATOMS
66
ITEM: BOX BOUNDS pp pp pp
-2.3407027419979162e+01 2.3407027419979162e+01
-8.7776352824922288e+00 8.7776352824922288e+00
-8.7776352824922288e+00 8.7776352824922288e+00
ITEM: ATOMS id type xs ys zs
2 5 0.0248493 0.414281 0.500008
8 5 0.0518661 0.442954 0.499994
12 5 0.111209 0.442868 0.499865
15 5 0.171081 0.442877 0.499982
19 5 0.23081 0.442874 0.499945
22 5 0.290696 0.442869 0.499911
26 5 0.350463 0.442868 0.49985
29 5 0.410318 0.442884 0.500077
33 5 0.470051 0.442873 0.500013
36 5 0.529948 0.442873 0.500033
40 5 0.589714 0.442899 0.500153
43 5 0.649519 0.442881 0.499836
47 5 0.709319 0.442871 0.500123
50 5 0.769178 0.442868 0.499888
54 5 0.828939 0.442869 0.499873
5 7 0.991591 0.443256 0.499999
57 5 0.888812 0.442875 0.499956
61 5 0.948107 0.442978 0.499978
64 5 0.975092 0.414121 0.5
1 3 0.0554929 0.501606 0.498678
3 5 0.0248992 0.585856 0.500021
6 3 0.0575764 0.498455 0.501578
7 5 0.0519169 0.557022 0.500018
9 4 0.0813873 0.500166 0.499181
10 3 0.111639 0.49979 0.50084
11 5 0.111209 0.557129 0.499866
65 6 0.0187313 0.500146 0.49989
66 7 0.00840956 0.556743 0.5
13 3 0.170589 0.50069 0.500215
14 5 0.171082 0.557138 0.499982
16 4 0.200944 0.498964 0.499656
17 3 0.231296 0.500494 0.500229
18 5 0.230809 0.557135 0.499945
20 3 0.290228 0.499934 0.500674
21 5 0.290696 0.55713 0.499911
23 4 0.320567 0.499933 0.498849
24 3 0.350856 0.499975 0.501074
25 5 0.350462 0.557128 0.49985
27 3 0.409849 0.50093 0.499892
28 5 0.410319 0.557146 0.500079
30 4 0.440188 0.49872 0.499835
31 3 0.470546 0.500451 0.500066
32 5 0.47005 0.557135 0.500013
34 3 0.529457 0.5004 0.49966
35 5 0.529949 0.557134 0.500034
37 4 0.559813 0.498298 0.500256
38 3 0.590086 0.50146 0.499005
39 5 0.589712 0.557158 0.50016
41 3 0.649182 0.500402 0.502194
42 5 0.64952 0.557134 0.499834
44 4 0.679429 0.499152 0.498672
45 3 0.709744 0.500266 0.499842
46 5 0.709319 0.557132 0.500123
48 3 0.768728 0.499826 0.500714
49 5 0.769178 0.557129 0.499888
51 4 0.799056 0.500055 0.498931
52 3 0.82937 0.500026 0.500912
53 5 0.828939 0.55713 0.499873
4 6 0.981214 0.499787 0.50001
55 3 0.888319 0.500527 0.499989
56 5 0.888812 0.557137 0.499956
58 4 0.918616 0.499179 0.500175
59 3 0.94281 0.500188 0.497202
60 5 0.948122 0.557043 0.500018
62 3 0.944168 0.500082 0.502712
63 5 0.975152 0.585703 0.500015
ITEM: TIMESTEP
30
ITEM: NUMBER OF ATOMS
66
ITEM: BOX BOUNDS pp pp pp
-2.3407027419979162e+01 2.3407027419979162e+01
-8.7776352824922288e+00 8.7776352824922288e+00
-8.7776352824922288e+00 8.7776352824922288e+00
ITEM: ATOMS id type xs ys zs
2 5 0.0296246 0.405246 0.497667
8 5 0.0561476 0.443005 0.500501
12 5 0.110876 0.440767 0.498585
15 5 0.171517 0.441925 0.499593
19 5 0.230373 0.441878 0.499596
22 5 0.29108 0.441006 0.498705
26 5 0.350159 0.44108 0.498379
29 5 0.410755 0.442001 0.500188
33 5 0.46962 0.441794 0.499658
36 5 0.530344 0.44167 0.500786
40 5 0.589419 0.44203 0.501316
43 5 0.649671 0.441538 0.498179
47 5 0.708851 0.441599 0.499946
50 5 0.769577 0.440859 0.498641
54 5 0.828605 0.441116 0.498472
5 7 0.990668 0.445801 0.499976
57 5 0.889194 0.441591 0.500408
61 5 0.943672 0.443684 0.498851
64 5 0.969796 0.402379 0.502575
1 3 0.0550796 0.502607 0.476498
3 5 0.0301801 0.597743 0.497854
6 3 0.067405 0.496142 0.52167
7 5 0.0563447 0.555973 0.50148
9 4 0.0852373 0.503212 0.489778
10 3 0.116402 0.498331 0.507669
11 5 0.110899 0.558599 0.498694
65 6 0.0171305 0.503668 0.525628
66 7 0.00935006 0.554136 0.499973
13 3 0.166258 0.504485 0.502587
14 5 0.171688 0.559811 0.4995
16 4 0.200939 0.489569 0.496305
17 3 0.235672 0.504376 0.502057
18 5 0.230201 0.559766 0.499521
20 3 0.28611 0.49919 0.508248
21 5 0.291092 0.558771 0.498746
23 4 0.320552 0.500069 0.48945
24 3 0.354879 0.499429 0.509112
25 5 0.350132 0.558823 0.498407
27 3 0.40542 0.504652 0.500181
28 5 0.410951 0.559898 0.5002
30 4 0.440178 0.489165 0.49734
31 3 0.474904 0.503793 0.503394
32 5 0.469437 0.559672 0.499579
34 3 0.525197 0.502771 0.493971
35 5 0.5305 0.559503 0.500908
37 4 0.559807 0.490775 0.505842
38 3 0.594342 0.503699 0.49331
39 5 0.589238 0.559851 0.501576
41 3 0.64527 0.501599 0.510176
42 5 0.64977 0.559203 0.498031
44 4 0.679437 0.494143 0.490841
45 3 0.714143 0.502976 0.504012
46 5 0.708745 0.559497 0.499888
48 3 0.764605 0.498603 0.507921
49 5 0.769555 0.558636 0.498721
51 4 0.799057 0.500844 0.489623
52 3 0.83339 0.49966 0.509434
53 5 0.828592 0.558846 0.498488
4 6 0.982687 0.495917 0.474002
55 3 0.883308 0.502063 0.49426
56 5 0.889299 0.55947 0.500493
58 4 0.914754 0.494928 0.509234
59 3 0.932632 0.501976 0.477779
60 5 0.943826 0.556704 0.4991
62 3 0.945073 0.50056 0.524082
63 5 0.970381 0.594933 0.502415
ITEM: TIMESTEP
40
ITEM: NUMBER OF ATOMS
66
ITEM: BOX BOUNDS pp pp pp
-2.3407027419979162e+01 2.3407027419979162e+01
-8.7776352824922288e+00 8.7776352824922288e+00
-8.7776352824922288e+00 8.7776352824922288e+00
ITEM: ATOMS id type xs ys zs
2 5 0.0297147 0.418728 0.491543
8 5 0.0602897 0.444167 0.502342
12 5 0.110983 0.439922 0.497587
15 5 0.171671 0.442621 0.499241
19 5 0.230284 0.442613 0.499349
22 5 0.291146 0.440165 0.497381
26 5 0.350127 0.440348 0.496967
29 5 0.410849 0.442758 0.500277
33 5 0.469565 0.442318 0.499042
36 5 0.530356 0.441814 0.501741
40 5 0.589431 0.442365 0.502341
43 5 0.649606 0.441542 0.496878
47 5 0.708738 0.441903 0.499427
50 5 0.769686 0.439815 0.497303
54 5 0.828514 0.440519 0.497075
5 7 0.990762 0.452748 0.492801
57 5 0.889025 0.4417 0.501028
61 5 0.939612 0.446545 0.496099
64 5 0.969272 0.415755 0.509828
1 3 0.0347878 0.500056 0.462706
3 5 0.0308013 0.584977 0.490851
6 3 0.0669597 0.497238 0.524301
7 5 0.0603346 0.552919 0.504379
9 4 0.0894385 0.503871 0.486548
10 3 0.119161 0.498162 0.51093
11 5 0.111041 0.558377 0.497993
65 6 7.51079e-05 0.512446 0.560698
66 7 0.0092418 0.547195 0.507089
13 3 0.165449 0.504946 0.503784
14 5 0.172232 0.562184 0.498888
16 4 0.201005 0.484328 0.495261
17 3 0.23686 0.50482 0.50304
18 5 0.229705 0.562046 0.499069
20 3 0.285272 0.498812 0.512381
21 5 0.291175 0.558928 0.497627
23 4 0.320538 0.500487 0.486709
24 3 0.355736 0.499049 0.513052
25 5 0.350065 0.559012 0.497184
27 3 0.404166 0.504964 0.500521
28 5 0.411469 0.562206 0.500297
30 4 0.440159 0.48423 0.495727
31 3 0.47602 0.503862 0.506512
32 5 0.468974 0.561611 0.498646
34 3 0.524242 0.502128 0.489381
35 5 0.5308 0.560797 0.502159
37 4 0.559838 0.488956 0.5093
38 3 0.595532 0.502799 0.48967
39 5 0.588984 0.561238 0.503017
41 3 0.644208 0.501311 0.513443
42 5 0.64988 0.560019 0.496486
44 4 0.679486 0.492183 0.487989
45 3 0.715217 0.50322 0.507548
46 5 0.708399 0.561221 0.499089
48 3 0.76375 0.498277 0.511754
49 5 0.76962 0.558663 0.497654
51 4 0.799014 0.501483 0.486901
52 3 0.833989 0.499638 0.513458
53 5 0.828503 0.559188 0.497186
4 6 0.999854 0.487617 0.439189
55 3 0.880363 0.501422 0.491003
56 5 0.889248 0.560195 0.501303
58 4 0.910531 0.494351 0.512964
59 3 0.933081 0.501687 0.475211
60 5 0.939759 0.555282 0.496925
62 3 0.9652 0.501207 0.537471
63 5 0.970202 0.582048 0.508457
ITEM: TIMESTEP
50
ITEM: NUMBER OF ATOMS
66
ITEM: BOX BOUNDS pp pp pp
-2.3407027419979162e+01 2.3407027419979162e+01
-8.7776352824922288e+00 8.7776352824922288e+00
-8.7776352824922288e+00 8.7776352824922288e+00
ITEM: ATOMS id type xs ys zs
2 5 0.0311477 0.454177 0.50151
8 5 0.0679115 0.431624 0.491476
12 5 0.119892 0.441229 0.495525
15 5 0.172859 0.449581 0.486576
19 5 0.232509 0.447905 0.492756
22 5 0.287599 0.442896 0.487106
26 5 0.353715 0.442981 0.486252
29 5 0.410591 0.446172 0.498485
33 5 0.471864 0.445265 0.485997
36 5 0.527346 0.44404 0.513994
40 5 0.592163 0.444303 0.514627
43 5 0.646725 0.444891 0.484866
47 5 0.71186 0.448314 0.490808
50 5 0.765097 0.442591 0.48843
54 5 0.828215 0.443205 0.485886
5 7 1.00139 0.465289 0.470236
57 5 0.880931 0.445244 0.503319
61 5 0.932525 0.443774 0.499033
64 5 0.972427 0.440243 0.516187
1 3 0.0371277 0.50208 0.465097
3 5 0.0274878 0.560256 0.484293
6 3 0.0742515 0.493441 0.507654
7 5 0.0676271 0.555666 0.500747
9 4 0.101743 0.503091 0.483674
10 3 0.128948 0.495298 0.520511
11 5 0.119442 0.551446 0.499269
65 6 0.980406 0.530054 0.563969
66 7 -0.00145314 0.534601 0.529138
13 3 0.17354 0.506389 0.516904
14 5 0.173587 0.56176 0.485412
16 4 0.20576 0.479408 0.507627
17 3 0.238476 0.506172 0.516031
18 5 0.231199 0.562085 0.492168
20 3 0.286717 0.496613 0.521803
21 5 0.288411 0.552574 0.489517
23 4 0.320919 0.502867 0.495033
24 3 0.35547 0.496846 0.520301
25 5 0.352889 0.552873 0.488709
27 3 0.404526 0.506368 0.512875
28 5 0.411888 0.56474 0.49852
30 4 0.439612 0.483161 0.497985
31 3 0.475096 0.503015 0.512445
32 5 0.470433 0.559093 0.484874
34 3 0.524402 0.50033 0.485007
35 5 0.528328 0.556518 0.513614
37 4 0.559695 0.495021 0.509251
38 3 0.594942 0.500643 0.485552
39 5 0.591563 0.556796 0.51472
41 3 0.64375 0.50135 0.514777
42 5 0.647559 0.556631 0.484274
44 4 0.678867 0.491208 0.495231
45 3 0.712911 0.504707 0.521686
46 5 0.711743 0.559048 0.488763
48 3 0.761822 0.49595 0.522384
49 5 0.765465 0.551561 0.491015
51 4 0.794614 0.505448 0.493924
52 3 0.82732 0.499212 0.51799
53 5 0.828138 0.555937 0.48655
4 6 0.0195682 0.470549 0.435729
55 3 0.870449 0.501922 0.489768
56 5 0.881021 0.557573 0.504845
58 4 0.898352 0.497639 0.521812
59 3 0.925343 0.505738 0.494159
60 5 0.932039 0.568078 0.506342
62 3 0.962691 0.498039 0.535525
63 5 0.968548 0.546482 0.499456
ITEM: TIMESTEP
60
ITEM: NUMBER OF ATOMS
66
ITEM: BOX BOUNDS pp pp pp
-2.3407027419979162e+01 2.3407027419979162e+01
-8.7776352824922288e+00 8.7776352824922288e+00
-8.7776352824922288e+00 8.7776352824922288e+00
ITEM: ATOMS id type xs ys zs
2 5 0.0354648 0.466322 0.5354
8 5 0.0757928 0.431655 0.490832
12 5 0.131935 0.439718 0.491479
15 5 0.17719 0.450984 0.471585
19 5 0.240766 0.453655 0.481938
22 5 0.286449 0.44186 0.483692
26 5 0.35913 0.442235 0.481955
29 5 0.405485 0.45171 0.484952
33 5 0.475635 0.450015 0.477748
36 5 0.523614 0.444982 0.52649
40 5 0.594824 0.445098 0.526274
43 5 0.642581 0.448989 0.478139
47 5 0.712436 0.451072 0.483368
50 5 0.757751 0.442225 0.483581
54 5 0.821687 0.443549 0.483086
5 7 1.01409 0.462663 0.445068
57 5 0.871835 0.444708 0.504237
61 5 0.922202 0.450779 0.479796
64 5 0.963961 0.442023 0.513725
1 3 0.047045 0.499294 0.484949
3 5 0.0362242 0.557611 0.490567
6 3 0.0843015 0.491487 0.506209
7 5 0.0766893 0.553523 0.505725
9 4 0.111932 0.500953 0.48061
10 3 0.138177 0.495064 0.520293
11 5 0.130077 0.552265 0.499531
65 6 0.966903 0.530495 0.571188
66 7 -0.0134092 0.537928 0.55526
13 3 0.18124 0.506268 0.512056
14 5 0.176893 0.56187 0.47523
16 4 0.211729 0.47967 0.52396
17 3 0.242777 0.506507 0.517225
18 5 0.24046 0.559908 0.482892
20 3 0.290277 0.493231 0.522715
21 5 0.288046 0.548191 0.488713
23 4 0.323943 0.513579 0.504603
24 3 0.357651 0.49305 0.521636
25 5 0.357987 0.548143 0.487821
27 3 0.406963 0.50566 0.520199
28 5 0.405055 0.559379 0.485053
30 4 0.44089 0.484384 0.499921
31 3 0.475455 0.504141 0.513426
32 5 0.474631 0.556781 0.475228
34 3 0.524639 0.499093 0.492131
35 5 0.524844 0.554553 0.525168
37 4 0.559046 0.496654 0.51764
38 3 0.59337 0.499173 0.491791
39 5 0.593855 0.55453 0.525381
41 3 0.642224 0.503496 0.512291
42 5 0.643533 0.556249 0.475371
44 4 0.676107 0.4848 0.496251
45 3 0.709105 0.506426 0.517475
46 5 0.71349 0.559693 0.480127
48 3 0.756579 0.494506 0.521209
49 5 0.758722 0.549657 0.488087
51 4 0.78785 0.511412 0.49626
52 3 0.818929 0.496912 0.521047
53 5 0.821486 0.551868 0.48583
4 6 0.0342201 0.470252 0.433391
55 3 0.861652 0.50267 0.505536
56 5 0.871148 0.561119 0.50832
58 4 0.888799 0.498048 0.541274
59 3 0.916175 0.506213 0.511141
60 5 0.922884 0.566961 0.492892
62 3 0.953196 0.499996 0.523336
63 5 0.963382 0.532095 0.4697
ITEM: TIMESTEP
70
ITEM: NUMBER OF ATOMS
66
ITEM: BOX BOUNDS pp pp pp
-2.3407027419979162e+01 2.3407027419979162e+01
-8.7776352824922288e+00 8.7776352824922288e+00
-8.7776352824922288e+00 8.7776352824922288e+00
ITEM: ATOMS id type xs ys zs
2 5 0.045164 0.468847 0.544512
8 5 0.0918159 0.434986 0.485598
12 5 0.14283 0.441838 0.488293
15 5 0.1865 0.453678 0.459703
19 5 0.246527 0.455046 0.469547
22 5 0.292538 0.439186 0.481537
26 5 0.361323 0.44039 0.478834
29 5 0.406613 0.454097 0.478539
33 5 0.476423 0.452383 0.476292
36 5 0.522344 0.444873 0.534261
40 5 0.59425 0.444604 0.533084
43 5 0.639772 0.452495 0.475053
47 5 0.707077 0.45471 0.475819
50 5 0.7517 0.441965 0.482065
54 5 0.81292 0.441275 0.485931
5 7 0.0277539 0.46639 0.441613
57 5 0.86073 0.450003 0.486748
61 5 0.906649 0.460579 0.464196
64 5 0.950368 0.439775 0.523505
1 3 0.0583586 0.497335 0.496536
3 5 0.0494748 0.557307 0.495723
6 3 0.0951536 0.49018 0.518049
7 5 0.0921182 0.551253 0.49839
9 4 0.121588 0.498945 0.490031
10 3 0.147832 0.494368 0.524687
11 5 0.1415 0.551372 0.498828
65 6 0.952621 0.532312 0.574843
66 7 0.973397 0.535044 0.56547
13 3 0.190105 0.500992 0.502634
14 5 0.186165 0.558791 0.472824
16 4 0.219056 0.490224 0.536062
17 3 0.249652 0.503414 0.509021
18 5 0.248023 0.560421 0.476932
20 3 0.295466 0.4908 0.519999
21 5 0.293929 0.546022 0.485455
23 4 0.327691 0.517527 0.512732
24 3 0.360391 0.490819 0.518375
25 5 0.360084 0.545492 0.484477
27 3 0.408587 0.50689 0.515947
28 5 0.405112 0.559693 0.480622
30 4 0.441957 0.481251 0.504571
31 3 0.475594 0.5065 0.511853
32 5 0.476028 0.557959 0.473312
34 3 0.524245 0.497428 0.49745
35 5 0.524108 0.552701 0.531377
37 4 0.557916 0.500318 0.523918
38 3 0.591367 0.49729 0.496912
39 5 0.592381 0.552603 0.530656
41 3 0.63927 0.50694 0.509633
42 5 0.640382 0.558016 0.470763
44 4 0.672063 0.479797 0.505764
45 3 0.704306 0.507976 0.511248
46 5 0.70842 0.560271 0.47489
48 3 0.750088 0.492906 0.520868
49 5 0.75292 0.547295 0.487024
51 4 0.7807 0.515961 0.504298
52 3 0.810604 0.492855 0.524918
53 5 0.812297 0.54809 0.489968
4 6 0.0489521 0.468571 0.441137
55 3 0.852719 0.503852 0.516332
56 5 0.859266 0.561241 0.492885
58 4 0.879468 0.497662 0.547747
59 3 0.904745 0.506557 0.510672
60 5 0.90743 0.564334 0.480219
62 3 0.941127 0.49942 0.526068
63 5 0.952038 0.525889 0.472752
ITEM: TIMESTEP
80
ITEM: NUMBER OF ATOMS
66
ITEM: BOX BOUNDS pp pp pp
-2.3407027419979162e+01 2.3407027419979162e+01
-8.7776352824922288e+00 8.7776352824922288e+00
-8.7776352824922288e+00 8.7776352824922288e+00
ITEM: ATOMS id type xs ys zs
2 5 0.0604857 0.469742 0.552631
8 5 0.109359 0.436783 0.480805
12 5 0.154919 0.441861 0.489662
15 5 0.197968 0.454737 0.455618
19 5 0.254026 0.456338 0.462435
22 5 0.300842 0.43655 0.47784
26 5 0.364469 0.43857 0.476977
29 5 0.410287 0.457038 0.470083
33 5 0.475971 0.454852 0.471621
36 5 0.521466 0.442508 0.541456
40 5 0.591807 0.441898 0.540508
43 5 0.636947 0.455025 0.466856
47 5 0.699677 0.45682 0.463156
50 5 0.74489 0.440066 0.484077
54 5 0.801473 0.437913 0.486673
5 7 0.0427195 0.470339 0.448544
57 5 0.846084 0.456075 0.472087
61 5 0.892305 0.463045 0.462008
64 5 0.934543 0.437705 0.532604
1 3 0.0729752 0.49627 0.504225
3 5 0.0647769 0.557199 0.503439
6 3 0.109103 0.489516 0.519767
7 5 0.109094 0.547735 0.48922
9 4 0.13501 0.502014 0.490442
10 3 0.160968 0.493576 0.524126
11 5 0.154228 0.551607 0.502147
65 6 0.937176 0.533467 0.577697
66 7 0.957516 0.532671 0.57257
13 3 0.200412 0.500106 0.501922
14 5 0.197422 0.557909 0.472992
16 4 0.228903 0.493025 0.534692
17 3 0.258051 0.502772 0.50522
18 5 0.256251 0.559346 0.475522
20 3 0.302115 0.489194 0.514413
21 5 0.301657 0.542608 0.477535
23 4 0.333339 0.518471 0.521369
24 3 0.365068 0.489766 0.51474
25 5 0.362989 0.542982 0.477468
27 3 0.410909 0.507588 0.511299
28 5 0.408609 0.56193 0.47797
30 4 0.443762 0.480666 0.519591
31 3 0.476324 0.508003 0.508814
32 5 0.476446 0.559958 0.471372
34 3 0.523395 0.493684 0.502961
35 5 0.523462 0.549985 0.535478
37 4 0.555976 0.511283 0.524504
38 3 0.588536 0.493295 0.503045
39 5 0.589516 0.549271 0.535287
41 3 0.635116 0.50755 0.504136
42 5 0.636197 0.559233 0.467358
44 4 0.666224 0.486501 0.526966
45 3 0.697707 0.506124 0.50522
46 5 0.700941 0.560447 0.47356
48 3 0.741257 0.491017 0.521853
49 5 0.745641 0.545065 0.486515
51 4 0.771009 0.521023 0.514127
52 3 0.799805 0.490938 0.523346
53 5 0.800276 0.545461 0.487523
4 6 0.0629574 0.467997 0.449288
55 3 0.840491 0.505055 0.511473
56 5 0.843902 0.560073 0.479842
58 4 0.865925 0.497662 0.545669
59 3 0.890858 0.507119 0.510258
60 5 0.893108 0.566187 0.482754
62 3 0.9262 0.49848 0.528726
63 5 0.938161 0.52031 0.475919
ITEM: TIMESTEP
90
ITEM: NUMBER OF ATOMS
66
ITEM: BOX BOUNDS pp pp pp
-2.3407027419979162e+01 2.3407027419979162e+01
-8.7776352824922288e+00 8.7776352824922288e+00
-8.7776352824922288e+00 8.7776352824922288e+00
ITEM: ATOMS id type xs ys zs
2 5 0.0776758 0.469909 0.558547
8 5 0.125079 0.433794 0.483676
12 5 0.169832 0.442039 0.488264
15 5 0.211823 0.457395 0.453515
19 5 0.263958 0.459899 0.459909
22 5 0.310293 0.433433 0.476312
26 5 0.369034 0.435472 0.47795
29 5 0.415879 0.461601 0.458388
33 5 0.476009 0.45633 0.458451
36 5 0.521093 0.441227 0.554076
40 5 0.587188 0.440719 0.552484
43 5 0.631812 0.45563 0.456576
47 5 0.689704 0.460539 0.455832
50 5 0.735604 0.437744 0.486735
54 5 0.787054 0.435019 0.485788
5 7 0.0582338 0.472756 0.45572
57 5 0.831477 0.459605 0.46836
61 5 0.876602 0.466981 0.45859
64 5 0.916614 0.435411 0.540836
1 3 0.0895808 0.497359 0.509049
3 5 0.0818392 0.558173 0.509493
6 3 0.125095 0.488661 0.521573
7 5 0.125327 0.544875 0.487027
9 4 0.149753 0.502714 0.491043
10 3 0.175612 0.493085 0.524368
11 5 0.169106 0.551349 0.505139
65 6 0.919326 0.534023 0.580135
66 7 0.940129 0.531879 0.578129
13 3 0.214714 0.501152 0.499272
14 5 0.211477 0.557667 0.473408
16 4 0.240736 0.490016 0.532561
17 3 0.268274 0.505388 0.505017
18 5 0.266335 0.562431 0.476154
20 3 0.311428 0.490012 0.508052
21 5 0.312222 0.537942 0.464374
23 4 0.34099 0.515448 0.528945
24 3 0.370791 0.490204 0.510869
25 5 0.367385 0.538873 0.468823
27 3 0.415291 0.504622 0.503397
28 5 0.413341 0.563709 0.477281
30 4 0.446324 0.493553 0.531252
31 3 0.477172 0.502926 0.50064
32 5 0.478267 0.559728 0.469557
34 3 0.52237 0.492532 0.516508
35 5 0.521836 0.546926 0.551642
37 4 0.553663 0.514883 0.495664
38 3 0.584884 0.492814 0.515765
39 5 0.586774 0.546327 0.552452
41 3 0.628996 0.502749 0.498464
42 5 0.629193 0.558453 0.466749
44 4 0.658956 0.497238 0.530086
45 3 0.688968 0.503916 0.501856
46 5 0.691754 0.562142 0.475393
48 3 0.730934 0.490925 0.518671
49 5 0.735862 0.541574 0.480121
51 4 0.75877 0.522687 0.526016
52 3 0.786548 0.491294 0.517881
53 5 0.785413 0.539878 0.475063
4 6 0.0791754 0.469902 0.454857
55 3 0.826241 0.507524 0.509934
56 5 0.829142 0.562932 0.479272
58 4 0.850637 0.49709 0.543958
59 3 0.874749 0.507558 0.509064
60 5 0.877443 0.567798 0.484704
62 3 0.909482 0.496966 0.531654
63 5 0.922731 0.514597 0.47866
ITEM: TIMESTEP
100
ITEM: NUMBER OF ATOMS
66
ITEM: BOX BOUNDS pp pp pp
-2.3407027419979162e+01 2.3407027419979162e+01
-8.7776352824922288e+00 8.7776352824922288e+00
-8.7776352824922288e+00 8.7776352824922288e+00
ITEM: ATOMS id type xs ys zs
2 5 0.0913241 0.470171 0.562164
8 5 0.137773 0.430571 0.488293
12 5 0.182035 0.442512 0.486177
15 5 0.223275 0.459365 0.450659
19 5 0.272959 0.464839 0.456552
22 5 0.318195 0.43019 0.480027
26 5 0.374194 0.431858 0.479995
29 5 0.420369 0.465951 0.451488
33 5 0.479596 0.457584 0.454818
36 5 0.52073 0.444662 0.555431
40 5 0.583011 0.443736 0.55411
43 5 0.624122 0.455861 0.454967
47 5 0.680901 0.465218 0.452423
50 5 0.726227 0.434125 0.487541
54 5 0.776251 0.432086 0.489643
5 7 0.0714886 0.474392 0.460392
57 5 0.819446 0.464907 0.465273
61 5 0.863764 0.470141 0.456926
64 5 0.901892 0.434359 0.546562
1 3 0.10236 0.498915 0.512433
3 5 0.095886 0.558226 0.514469
6 3 0.137343 0.488529 0.522892
7 5 0.138566 0.540435 0.484994
9 4 0.162531 0.503341 0.492032
10 3 0.187991 0.49227 0.52445
11 5 0.181196 0.551773 0.508351
65 6 0.905236 0.533812 0.581949
66 7 0.926002 0.53163 0.581485
13 3 0.225355 0.502234 0.499542
14 5 0.222928 0.558995 0.474492
16 4 0.251012 0.489184 0.531235
17 3 0.277488 0.506865 0.502238
18 5 0.275412 0.565544 0.478196
20 3 0.319167 0.490218 0.504981
21 5 0.320749 0.532281 0.454532
23 4 0.347619 0.516183 0.526646
24 3 0.376293 0.489822 0.507372
25 5 0.372032 0.534255 0.461299
27 3 0.419258 0.503432 0.49952
28 5 0.417457 0.56627 0.476777
30 4 0.448841 0.492297 0.52876
31 3 0.478495 0.501061 0.498453
32 5 0.478863 0.560028 0.469498
34 3 0.521962 0.498052 0.522653
35 5 0.521558 0.548461 0.564367
37 4 0.551404 0.498605 0.491439
38 3 0.581131 0.498708 0.521662
39 5 0.58235 0.547849 0.565259
41 3 0.623743 0.501874 0.498768
42 5 0.624458 0.558524 0.467309
44 4 0.652354 0.495677 0.529323
45 3 0.680824 0.504822 0.499756
46 5 0.683408 0.565415 0.475822
48 3 0.722239 0.490835 0.514238
49 5 0.727769 0.536149 0.469293
51 4 0.748765 0.519742 0.53179
52 3 0.775299 0.492675 0.512278
53 5 0.773528 0.532418 0.460535
4 6 0.0922777 0.472095 0.459114
55 3 0.81409 0.511431 0.509577
56 5 0.8171 0.567818 0.480556
58 4 0.837887 0.495539 0.542952
59 3 0.862006 0.507561 0.509603
60 5 0.864461 0.569917 0.487781
62 3 0.896034 0.495459 0.53429
63 5 0.909721 0.510245 0.481599
ITEM: TIMESTEP
0
ITEM: NUMBER OF ATOMS
66
ITEM: BOX BOUNDS pp pp pp
-2.3407027419979162e+01 2.3407027419979162e+01
-8.7776352824922288e+00 8.7776352824922288e+00
-8.7776352824922288e+00 8.7776352824922288e+00
ITEM: ATOMS id type xs ys zs
8 5 0.137773 0.430571 0.488293
5 7 0.0714886 0.474392 0.460392
4 6 0.0922777 0.472095 0.459114
12 5 0.182035 0.442512 0.486177
15 5 0.223275 0.459365 0.450659
19 5 0.272959 0.464839 0.456552
22 5 0.318195 0.43019 0.480027
26 5 0.374194 0.431858 0.479995
29 5 0.420369 0.465951 0.451488
33 5 0.479596 0.457584 0.454818
43 5 0.624122 0.455861 0.454967
37 4 0.551404 0.498605 0.491439
47 5 0.680901 0.465218 0.452423
50 5 0.726227 0.434125 0.487541
54 5 0.776251 0.432086 0.489643
57 5 0.819446 0.464907 0.465273
61 5 0.863764 0.470141 0.456926
7 5 0.138566 0.540435 0.484994
9 4 0.162531 0.503341 0.492032
13 3 0.225355 0.502234 0.499542
14 5 0.222928 0.558995 0.474492
18 5 0.275412 0.565544 0.478196
21 5 0.320749 0.532281 0.454532
25 5 0.372032 0.534255 0.461299
27 3 0.419258 0.503432 0.49952
28 5 0.417457 0.56627 0.476777
31 3 0.478495 0.501061 0.498453
32 5 0.478863 0.560028 0.469498
41 3 0.623743 0.501874 0.498768
42 5 0.624458 0.558524 0.467309
45 3 0.680824 0.504822 0.499756
46 5 0.683408 0.565415 0.475822
49 5 0.727769 0.536149 0.469293
53 5 0.773528 0.532418 0.460535
56 5 0.8171 0.567818 0.480556
60 5 0.864461 0.569917 0.487781
63 5 0.909721 0.510245 0.481599
2 5 0.0913241 0.470171 0.562164
1 3 0.10236 0.498915 0.512433
6 3 0.137343 0.488529 0.522892
10 3 0.187991 0.49227 0.52445
16 4 0.251012 0.489184 0.531235
20 3 0.319167 0.490218 0.504981
24 3 0.376293 0.489822 0.507372
30 4 0.448841 0.492297 0.52876
36 5 0.52073 0.444662 0.555431
40 5 0.583011 0.443736 0.55411
34 3 0.521962 0.498052 0.522653
38 3 0.581131 0.498708 0.521662
44 4 0.652354 0.495677 0.529323
48 3 0.722239 0.490835 0.514238
52 3 0.775299 0.492675 0.512278
64 5 0.901892 0.434359 0.546562
58 4 0.837887 0.495539 0.542952
62 3 0.896034 0.495459 0.53429
3 5 0.095886 0.558226 0.514469
11 5 0.181196 0.551773 0.508351
17 3 0.277488 0.506865 0.502238
23 4 0.347619 0.516183 0.526646
35 5 0.521558 0.548461 0.564367
39 5 0.58235 0.547849 0.565259
51 4 0.748765 0.519742 0.53179
55 3 0.81409 0.511431 0.509577
65 6 0.905236 0.533812 0.581949
66 7 0.926002 0.53163 0.581485
59 3 0.862006 0.507561 0.509603
ITEM: TIMESTEP
1000
ITEM: NUMBER OF ATOMS
66
ITEM: BOX BOUNDS pp pp pp
-2.3407027419979162e+01 2.3407027419979162e+01
-8.7776352824922288e+00 8.7776352824922288e+00
-8.7776352824922288e+00 8.7776352824922288e+00
ITEM: ATOMS id type xs ys zs
8 5 0.287571 0.574606 0.623074
5 7 0.306198 0.52608 0.453292
4 6 0.292333 0.487139 0.467427
12 5 0.355461 0.606643 0.568536
15 5 0.379016 0.473253 0.544028
19 5 0.356607 0.411014 0.408973
22 5 0.402459 0.414215 0.355328
26 5 0.435885 0.481108 0.51946
29 5 0.460776 0.412738 0.37995
33 5 0.491963 0.370705 0.471739
43 5 0.557836 0.639767 0.596292
37 4 0.53665 0.483601 0.526685
47 5 0.606699 0.557325 0.675302
50 5 0.609712 0.404426 0.617694
54 5 0.666011 0.438423 0.665594
57 5 0.666048 0.576808 0.587179
61 5 0.681676 0.597645 0.462829
7 5 0.30362 0.480805 0.625323
9 4 0.320079 0.575485 0.568137
13 3 0.356652 0.490933 0.521721
14 5 0.341399 0.440979 0.528772
18 5 0.350364 0.504172 0.365535
21 5 0.39492 0.512906 0.333652
25 5 0.426105 0.389114 0.464813
27 3 0.460219 0.457246 0.425393
28 5 0.459493 0.508743 0.384657
31 3 0.496986 0.432524 0.471171
32 5 0.512057 0.436935 0.419149
41 3 0.559586 0.574426 0.598799
42 5 0.546388 0.555496 0.65192
45 3 0.594125 0.520162 0.633585
46 5 0.581809 0.484064 0.677358
49 5 0.612587 0.465423 0.533415
53 5 0.65835 0.408369 0.568123
56 5 0.695696 0.520764 0.620959
60 5 0.716913 0.567689 0.49284
63 5 0.702801 0.547325 0.351817
2 5 0.266539 0.449155 0.537964
1 3 0.279671 0.502392 0.521217
6 3 0.299877 0.532425 0.586947
10 3 0.342895 0.551315 0.577286
16 4 0.360294 0.516611 0.46066
20 3 0.396184 0.471901 0.38426
24 3 0.429541 0.454601 0.461699
30 4 0.476776 0.467901 0.46831
36 5 0.520963 0.395938 0.56501
40 5 0.521999 0.589277 0.522104
34 3 0.514187 0.454786 0.541903
38 3 0.541028 0.549881 0.530447
44 4 0.582609 0.554904 0.584891
48 3 0.616771 0.46404 0.597999
52 3 0.657912 0.460255 0.60865
64 5 0.677612 0.472002 0.381075
58 4 0.682716 0.50303 0.51891
62 3 0.69788 0.50404 0.398698
3 5 0.26101 0.541646 0.507644
11 5 0.34825 0.533477 0.637229
17 3 0.364036 0.472697 0.409029
23 4 0.412733 0.498562 0.434808
35 5 0.499231 0.486979 0.583019
39 5 0.553489 0.559323 0.475063
51 4 0.637078 0.493362 0.620024
55 3 0.677735 0.520275 0.577717
65 6 0.71699 0.463463 0.405616
66 7 0.713114 0.436089 0.45272
59 3 0.694784 0.544042 0.475462
ITEM: TIMESTEP
2000
ITEM: NUMBER OF ATOMS
66
ITEM: BOX BOUNDS pp pp pp
-2.3407027419979162e+01 2.3407027419979162e+01
-8.7776352824922288e+00 8.7776352824922288e+00
-8.7776352824922288e+00 8.7776352824922288e+00
ITEM: ATOMS id type xs ys zs
4 6 0.325967 0.472511 0.548844
19 5 0.438374 0.620096 0.552458
22 5 0.454028 0.509418 0.6209
29 5 0.462261 0.480727 0.349531
33 5 0.523134 0.474767 0.385969
18 5 0.413075 0.586771 0.633492