ITEM: TIMESTEP
0
ITEM: NUMBER OF ATOMS
1152
ITEM: BOX BOUNDS pp pp pp
-1.2226894606675069e+01 7.7851839243219715e+01
2.3141414483444924e+00 1.8271436263248198e+01
1.4193121110840448e+00 1.9166265600510151e+01
ITEM: ATOMS id type q x y z
404 2 -0.878842 -7.22261 6.86679 4.74522
332 2 -0.924178 -8.09253 2.70591 2.31334
120 1 1.96171 -8.02352 3.1674 3.90001
126 2 -1.0138 -9.32223 3.93806 4.341
179 2 -0.824148 -11.2521 4.04232 2.09004
16 2 -0.949108 -11.1985 2.51806 5.40252
1112 2 -0.869503 -6.80556 4.19184 4.1335
580 2 -0.98493 -10.0555 4.35366 6.71562
1001 1 1.98999 -10.5966 3.99617 5.27612
818 2 -0.792376 -11.1413 6.33841 2.29428
844 2 -0.915104 -11.7298 4.9776 4.73308
1000 1 1.62978 -12.0291 2.68258 1.82551
722 1 1.34495 -12.1978 5.57997 3.31001
290 1 1.8168 -6.13424 5.59499 4.84485
300 1 1.87402 -3.31821 3.57145 1.72035
75 1 1.88974 -3.19496 5.79761 4.62314
249 2 -0.947655 -1.99123 2.48769 4.00736
891 2 -0.913168 -4.74349 6.08612 4.23371
700 2 -0.966436 -5.71682 5.1841 6.32834
636 2 -0.900353 -4.03425 3.11976 3.11276
942 2 -0.917129 -3.24222 4.33606 5.30186
928 1 1.74681 -3.44741 2.87826 4.58317
936 2 -1.05538 -2.17375 5.88187 3.43073
751 2 -0.95104 -2.72406 6.99546 5.60531
984 1 2.05506 -1.03012 5.37418 2.44354
699 2 -0.980934 -1.84042 4.16819 1.77533
374 2 -1.00434 -9.38309 8.45581 4.66542
198 2 -0.942099 -7.92529 8.10806 2.56476
330 2 -0.834535 -7.1512 9.78133 4.24206
354 1 1.93353 -10.7202 9.04617 5.26844
436 2 -0.96813 -10.9388 8.32923 6.62997
574 2 -0.811795 -12.1018 8.77392 4.40564
347 2 -0.915311 -8.72434 12.2243 6.56669
557 2 -0.961324 -8.46113 11.6854 2.85176
443 1 1.4608 -10.0263 12.1161 5.68771
1083 1 1.83198 -7.91522 8.27877 4.14865
920 1 1.72103 -6.93528 11.2109 3.32602
1061 2 -0.92572 -10.6598 10.6408 5.46118
901 1 1.91339 -9.0998 12.1287 1.45143
199 1 1.88934 -3.60239 8.62888 1.45967
231 2 -0.93054 -4.40945 9.86836 5.43893
377 2 -0.944247 -3.9585 8.77407 3.02864
118 1 1.91623 -3.41808 9.79105 4.18341
470 1 1.86137 -1.46741 7.98881 5.56078
474 2 -0.962194 -2.04945 9.25359 4.69717
314 2 -0.951818 -1.18258 8.42992 7.04969
380 1 1.93 -4.58596 10.1543 7.03421
221 2 -0.896865 -6.35252 12.5607 4.11071
224 2 -0.949908 -6.02312 10.8778 2.06886
386 2 -0.95044 -4.53099 11.7659 7.15295
720 2 -1.00809 -3.2507 11.297 3.58963
732 1 2.01316 -2.25041 12.2111 2.85867
787 2 -0.905592 -1.02057 12.7721 6.23746
76 2 -0.823405 -7.34761 16.5322 7.00187
192 1 1.80226 -7.75245 16.3167 5.40674
182 1 1.81711 -10.5367 14.9262 4.8929
122 2 -0.981007 -10.3052 14.7924 3.31994
490 2 -0.891914 -10.8198 13.4929 5.51453
197 2 -0.972926 -7.95091 17.7453 4.72776
257 2 -0.963885 -11.7815 17.6636 3.09944
275 2 -0.863638 -11.7601 15.9114 5.13492
390 1 1.80319 -12.1067 17.4417 4.62282
430 2 -0.948305 -10.3812 13.0262 1.54872
662 2 -0.92668 -6.81424 15.28 4.58509
1070 2 -0.901106 -9.16449 15.5105 5.66806
669 1 1.77819 -11.148 14.3639 2.01912
29 1 1.90375 -5.94093 13.9329 4.91132
140 2 -0.978523 -5.93352 13.6759 6.44446
575 2 -0.936557 -4.40334 14.3904 4.62428
94 2 -0.931535 -4.48506 15.7514 2.43383
307 1 1.96582 -3.48347 14.9412 3.46593
189 2 -0.903005 -4.02106 17.7151 5.64372
350 2 -0.975216 -2.86516 13.7126 2.71953
208 1 1.79623 -1.13692 17.098 3.91963
875 1 1.92621 -3.60392 17.1645 7.14142
629 2 -0.991917 -2.27451 15.912 3.78958
1130 2 -1.06297 -2.02159 17.3098 7.20244
61 2 -0.960507 -7.67806 4.96394 7.8167
137 1 2.01592 -9.24418 4.95794 7.9613
214 2 -0.883937 -12.0167 7.27545 8.8372
836 2 -1.04891 -9.70151 6.44892 8.10867
612 2 -0.958488 -9.47352 4.00394 9.24843
100 1 2.10753 -6.96581 5.42177 12.0753
262 1 1.83825 -9.43234 4.3518 10.8454
267 2 -1.00409 -9.5591 3.17935 11.9467
310 2 -0.936275 -10.6412 5.28939 11.0926
505 1 1.30073 -12.1145 5.1838 11.6683
805 2 -0.99645 -8.20519 5.33505 11.1049
402 2 -0.9593 -5.22634 4.47818 8.82303
419 2 -1.08218 -5.87351 6.94962 8.20792
46 1 1.92395 -3.95796 3.51218 8.9763
220 2 -0.938522 -2.59288 4.26103 8.51932
401 2 -0.959726 -2.30694 7.50524 9.35697
201 1 1.79599 -0.974893 4.26333 8.24538
1064 1 1.99674 -6.07122 5.44649 7.84972
321 2 -1.07551 -6.15254 4.08137 11.9932
328 2 -1.05964 -6.05635 6.68601 11.6806
521 2 -0.917237 -4.03609 3.20646 10.5726
195 2 -1.02599 -3.50581 7.3662 11.6709
345 1 1.92319 -2.09064 7.30802 10.9366
230 2 -0.962516 -1.32538 5.94327 11.2624
840 1 2.0644 -5.09164 2.92458 11.7977
898 2 -0.976215 -4.39642 2.6729 13.1871
159 2 -0.975221 -7.6584 8.48338 9.47685
302 2 -1.0237 -10.1365 8.8691 9.11997
110 1 1.93622 -10.655 7.7217 8.11579
542 1 1.88195 -8.98956 9.08133 10.149
196 2 -0.897774 -6.82839 12.5002 8.46871
165 1 1.74261 -8.36752 12.8896 8.01319
203 2 -0.879233 -9.46349 12.3368 9.06943
51 2 -0.90178 -9.58535 8.40273 11.5562
149 2 -0.937426 -12.1589 8.60173 11.2537
566 2 -0.947452 -8.62485 10.5332 10.6812
910 1 1.87208 -11.0077 8.73097 12.3238
1016 2 -0.926354 -11.2219 10.1726 12.9699
695 1 1.77222 -9.38606 11.9677 10.6379
654 2 -0.870246 -10.9334 11.9077 11.1817
1091 1 1.75365 -11.6799 11.6507 12.5986
306 2 -0.986164 -5.80112 9.38151 7.79048
38 1 1.89735 -2.03736 8.75081 8.34793
168 2 -0.927578 -1.12886 9.73475 9.33603
786 1 2.07728 -6.13681 8.31155 8.91054
940 2 -0.940021 -3.3482 9.55856 7.84435
968 2 -1.02237 -5.24478 8.49284 10.2202
579 1 1.85436 -5.40801 12.8954 7.75105
285 2 -0.958257 -5.16064 8.75325 12.9523
466 2 -0.875101 -6.08927 12.3847 12.4223
573 2 -0.516816 -3.93762 11.2938 11.5971
677 1 2.10424 -4.99755 7.82473 11.6075
1139 2 -0.967911 -1.02701 8.42135 11.4471
642 1 1.74314 -4.52626 12.3597 12.6335
116 2 -0.8998 -7.03555 16.1715 9.54411
301 2 -0.915041 -8.64919 14.4689 8.2233
92 1 1.42975 -10.7938 16.9361 9.33054
847 1 1.76271 -8.11802 16.0171 8.37392
609 2 -0.867925 -9.38588 17.0027 8.68522
653 2 -0.474849 -12.0244 16.9384 8.35813
317 1 1.90713 -7.3112 13.493 12.3022
353 1 1.90671 -9.76932 17.5575 12.0573
535 2 -0.944806 -8.60249 13.1546 11.4032
433 1 1.9464 -6.99924 16.3988 11.165
598 2 -0.955577 -6.8481 14.9882 11.9721
1098 2 -1.01111 -8.47754 16.9722 11.4021
608 2 -0.892571 -10.8602 17.0885 10.9092
481 2 -0.94799 -2.69622 15.4408 9.98986
826 2 -0.828722 -4.57718 13.8055 8.85319
850 2 -0.938649 -3.69732 15.5919 7.48705
766 1 1.85584 -3.15796 14.637 8.62769
967 2 -0.915044 -2.05006 13.5257 8.39582
788 2 -0.973376 -4.25873 18.1037 8.21501
105 2 -0.933302 -3.82384 13.8127 12.4745
407 1 1.97871 -1.7517 16.022 11.1267
916 2 -0.968453 -5.98329 17.6015 11.4618
1035 2 -1.00697 -2.334 15.9108 12.6199
726 2 -0.985306 -1.46517 17.534 10.7395
371 1 2.02999 -8.38802 5.97929 14.8449
552 1 1.93348 -7.4608 3.08926 15.9944
160 2 -0.985804 -7.93407 7.28879 15.6422
292 2 -1.00512 -9.98184 6.00905 14.7255
538 2 -0.873881 -9.0741 6.51086 18.4949
37 1 1.94403 -11.4614 6.36535 14.3233
313 2 -0.832973 -12.0862 5.234 13.272
64 1 1.60762 -7.74138 7.22689 19.0314
718 2 -0.896259 -7.91896 4.62613 15.6656
972 2 -1.04525 -7.57414 5.74537 13.5116
1048 2 -0.968845 -7.42678 2.81162 17.5911
932 2 -0.866847 -11.3482 5.61081 17.4224
624 1 1.49009 -10.4068 5.70089 18.7446
187 2 -0.924751 -6.50865 6.19495 19.1617
455 2 -1.01941 -6.0903 2.72712 15.2153
269 2 -1.02767 -4.47841 7.15082 14.8308
152 2 -0.912592 -1.59568 5.3983 13.774
432 2 -1.00587 -3.98016 7.2329 18.7009
863 2 -0.988297 -4.42945 4.62853 14.7731
864 2 -0.976188 -5.19872 5.91825 16.9211
1100 1 1.89515 -5.06642 6.02196 18.5283
857 1 2.06421 -4.63315 3.03832 14.7324
659 1 1.9399 -4.13248 5.88359 15.7185
671 2 -0.908216 -2.61406 5.884 16.2186
973 1 1.76009 -1.22254 5.40224 15.3773
951 2 -0.944655 -4.42325 4.68082 19.0841
778 2 -1.00748 -3.25217 2.40484 18.338
666 2 -1.02302 -3.72858 2.33517 15.7715
108 2 -0.882414 -8.65058 9.79816 15.8807
81 2 -0.971682 -11.272 7.72585 13.5201
213 2 -0.973295 -9.32848 10.9136 18.2034
914 2 -0.886032 -7.07317 8.78547 17.6747
892 1 1.85593 -7.42002 8.73516 16.0831
673 2 -0.883202 -11.0001 9.20131 17.2285
604 1 1.82536 -10.9032 12.819 15.3375
852 2 -0.966632 -10.7761 11.3935 15.936
859 2 -0.875997 -11.0228 12.6605 13.681
615 1 1.79049 -9.927 10.3615 16.7729
41 2 -0.957289 -6.11973 9.11487 15.2564
98 2 -0.915412 -4.43724 9.69328 18.3226
500 2 -0.930679 -1.95189 11.9058 19.0335
363 1 1.62246 -5.84095 10.3923 18.3379
351 2 -0.895752 -2.8368 11.4102 16.4672
19 1 1.90714 -1.91011 12.3026 17.4863
427 2 -0.990604 -1.57168 11.2592 14.1949
1145 1 2.05456 -4.78201 8.61889 14.4722
945 2 -0.975373 -3.46651 9.45754 14.7739
727 2 -0.903158 -1.98548 8.80211 19.0298
691 2 -0.888335 -6.20837 11.6471 17.3813
1123 2 -0.854825 -4.14456 11.8176 14.2061
839 1 1.9208 -2.95939 10.9803 14.9153
102 1 1.98882 -8.16533 14.2017 15.2225
194 2 -0.94956 -7.79858 13.5282 13.8225
10 1 1.87255 -9.48758 16.9247 15.0089
551 1 1.91572 -7.86391 17.7465 18.7571
383 2 -0.90752 -10.6288 16.6212 16.1206
85 2 -0.911875 -11.1777 15.3652 18.5009
576 2 -0.9266 -6.78055 16.6043 19.1047
510 2 -0.501145 -12.1428 13.5974 15.8453
974 1 1.84822 -6.66145 13.1811 17.6621
639 2 -0.976276 -9.52724 13.6041 15.7621
827 2 -0.947518 -8.29082 15.7936 15.0488
846 2 -0.969826 -7.99506 13.0976 18.5327
737 2 -0.955616 -7.06141 13.8704 16.2668
1143 2 -0.991317 -9.23421 16.9614 18.3922
971 2 -0.979144 -9.99982 16.9317 13.5236
1110 1 1.88003 -10.6654 16.6834 17.7445
1087 2 -0.878147 -11.5032 17.997 18.1771
591 2 -0.975528 -8.69899 18.2575 15.3658
508 2 -0.893554 -5.62624 14.1779 18.48
393 2 -1.02188 -2.50443 16.3465 16.7549
135 2 -0.935109 -2.33316 13.8776 17.2667
138 1 1.98938 -2.06259 14.9608 16.1426
428 2 -1.01956 -2.79837 14.5549 14.8105
729 2 -0.981255 -4.87048 16.5109 17.5526
1120 2 -0.545157 -4.7412 15.7047 13.7148
1065 1 1.88516 -5.41233 15.7538 18.852
1038 1 1.98753 -3.62235 17.4186 17.1156
965 1 1.93466 -3.34402 15.0089 13.4035
484 2 -0.94906 -0.656554 3.33653 6.90902
411 2 -0.961191 -0.117186 7.46885 4.79044
239 2 -0.954779 0.374904 4.87581 3.06143
498 1 2.00959 1.45714 7.42442 5.03179
256 2 -0.990787 2.03343 6.47497 3.88741
493 2 -0.991704 2.71853 3.89202 4.01377
50 2 -1.00967 -0.574094 6.51452 1.47819
1129 2 -0.972198 1.57931 6.90157 6.5136
749 1 2.05924 1.96667 5.05124 3.19731
803 1 2.00815 3.98291 3.15784 4.67198
949 2 -0.972902 2.62175 5.14837 1.75292
370 1 1.97783 8.32154 4.5085 4.49309
320 2 -0.969538 7.54589 3.37433 3.68434
5 2 -1.04331 7.27976 5.17985 5.40684
131 2 -1.00607 4.8458 4.23136 5.46635
273 1 2.02027 5.95778 5.08028 6.24339
446 2 -0.954017 6.53309 7.53822 2.18
43 2 -0.869146 9.42472 7.51242 1.66227
570 1 1.79962 9.22005 5.93471 2.06386
738 2 -0.925077 9.03454 5.65562 3.63688
1040 2 -0.975684 5.17121 5.54072 1.45035
747 2 -0.924899 9.53336 3.9117 5.34209
683 2 -0.981588 5.49091 6.60492 6.45719
762 2 -0.953848 5.11744 2.47263 3.73118
324 2 -0.936057 0.436411 8.92737 2.14449
438 2 -0.976779 0.805448 11.2083 5.34108
506 1 1.92347 -0.0975255 12.463 4.95163
526 2 -0.850982 3.44443 11.1428 5.33048
453 1 1.75217 3.71199 12.6661 5.89581
410 2 -0.981311 2.87143 12.8557 7.20569
756 2 -0.93903 2.22468 8.8583 4.99836
804 1 2.0231 1.54267 10.0148 1.83742
646 2 -1.02446 -0.863407 12.2058 3.62058
1015 2 -1.05983 2.02114 10.6405 3.16482
739 1 1.90005 2.09416 10.4296 4.68505
477 2 -0.962341 7.37308 9.90301 3.2703
289 1 1.99 6.15817 8.8246 3.09933
311 2 -0.982313 5.70494 8.4641 4.57842
303 2 -0.974602 9.83008 11.7655 6.85921
533 1 2.00358 9.91139 12.3433 5.37238
491 2 -0.914301 6.71601 12.4596 3.07238
611 2 -0.976821 5.08283 9.34061 2.0651
1077 2 -0.927348 5.00559 8.95391 7.16627
958 2 -0.963588 7.53046 8.20763 6.44212
633 1 1.95806 5.94117 8.07702 6.11012
1017 2 -0.910438 8.77948 11.5366 1.87196
960 2 -0.955365 8.73771 11.6355 4.57528
903 1 1.94212 7.89664 11.3842 3.23008
523 1 2.00446 -0.612924 17.7415 6.73697
106 2 -0.982616 -0.401561 17.0604 5.33631
448 2 -0.838684 0.01525 17.2599 2.78055
414 2 -0.980485 0.793226 13.7958 4.97482
335 1 1.89189 2.03539 14.3207 4.10376
337 2 -0.924155 3.3527 13.552 4.60539
912 1 1.95314 3.24848 16.422 5.73638
1025 2 -0.972146 1.48361 13.9555 2.64818
989 2 -0.928317 2.56358 15.8047 4.40716
752 2 -0.946545 2.34748 15.716 6.88835
997 2 -0.998358 3.48034 17.9583 5.64137
828 2 -0.961963 4.62726 15.7206 6.1565
200 1 1.9191 8.26892 16.12 1.96342
12 1 2.03523 7.86632 16.6296 6.27868
167 2 -0.976275 7.08389 15.3279 6.53685
304 2 -0.936338 9.58963 13.8783 5.42474
431 2 -0.847523 5.26312 13.1941 6.27665
456 2 -1.00203 6.96351 17.6902 5.47799
403 2 -0.958712 7.25377 16.8856 2.95862
1116 2 -0.883947 5.13315 14.5489 2.15489
587 1 1.87981 5.61309 14.6931 6.86728
656 2 -1.00767 9.7591 16.5179 2.23291
1047 1 1.91475 6.64754 18.0003 3.93878
1036 1 1.85768 6.51836 13.7144 2.01329
643 2 -0.992193 9.24766 16.3825 5.54592
1058 2 -0.958797 7.85341 14.5573 2.16745
40 2 -0.961317 -0.352973 3.59231 9.62919
236 1 1.91368 1.33425 6.13389 7.91418
422 2 -0.932023 2.59485 5.12648 8.18593
27 2 -0.971043 2.63968 2.85572 9.14322
1126 1 1.9917 3.15 4.28376 9.47722
1052 2 -0.9532 -0.125053 5.58386 7.89336
854 2 -0.966728 1.26831 7.166 9.1805
516 1 1.90961 -0.687077 5.11999 12.4814
139 2 -0.995185 0.788421 5.61745 12.7433
318 1 1.99311 2.20395 5.84868 12.0372
367 2 -0.959977 2.29312 7.36836 11.5064
1039 2 -0.932927 -0.582724 3.52929 12.2052
885 1 1.95945 -0.31183 2.62759 10.9107
664 2 -1.03414 2.51041 4.83498 10.8046
1023 2 -0.95121 3.41777 5.59164 13.0025
164 1 1.86211 7.4616 6.83104 10.2332
216 2 -0.975118 7.04345 2.76727 9.46499
381 1 1.96109 6.3145 4.19304 9.19641
1134 2 -0.970333 4.75569 4.34021 9.6102
1079 2 -0.963311 7.18809 5.26978 9.96803
589 2 -0.998741 6.37509 4.34639 7.62737
746 2 -0.945873 9.89994 7.1251 7.58494
994 2 -0.950555 9.68129 2.94066 9.12551
259 2 -0.913508 8.79665 7.00703 11.1279
556 2 -0.921677 8.4891 4.74789 13.0532
568 1 1.80593 10.1003 4.51514 12.8799
181 1 1.81328 10.0034 7.45439 12.1867
584 2 -0.877947 6.27377 7.5815 11.0911
111 1 1.94652 4.09032 9.61386 8.297
65 1 1.8877 2.17706 11.9283 8.33501
517 2 -0.954393 2.76204 10.4599 7.9815
996 2 -0.979326 3.41701 8.46148 9.22763
1135 1 1.94772 2.12237 8.12934 10.0988
590 2 -0.889061 0.558701 12.1167 8.30958
602 2 -1.01102 2.46701 12.3966 9.86634
406 1 1.94879 -0.379602 9.70107 10.6944
435 1 1.97841 -0.502056 11.618 13.0228
7 2 -1.02017 -0.626964 10.9506 11.625
1062 2 -0.949506 1.20107 9.37553 10.3833
1054 1 1.95102 4.11 10.7873 13.0739
917 2 -0.994345 3.4847 12.0438 12.2466
45 2 -0.967856 9.28349 9.45668 7.97926
103 2 -0.862109 9.63027 11.6386 9.46717
277 2 -1.02776 5.00075 10.689 8.98074
527 2 -0.935707 7.47862 11.3603 8.26442
348 2 -0.987389 6.32746 12.6881 10.1098
426 1 1.86802 9.05696 11.0288 8.06698
496 1 1.88103 6.46332 11.2173 9.47652
667 1 1.93379 8.60552 8.07737 7.63147
688 2 -0.979927 7.61586 7.64368 8.86614
245 1 1.80083 6.20398 9.13467 11.6261
177 2 -0.964857 6.94866 9.22439 13.0323
89 2 -0.95002 6.93681 10.1295 10.5948
600 2 -0.895242 4.69612 9.69981 12.0434
56 1 1.9255 2.26333 17.5263 10.0631
442 1 1.84151 -0.607119 13.1555 7.76099
166 2 -0.978343 0.118845 14.5858 7.95257
802 1 1.9391 1.17668 15.7895 7.98551
647 2 -0.914917 1.98798 16.1069 9.36954
941 2 -1.03289 0.45999 17.1647 7.78408
141 2 -0.980686 -0.319076 15.3217 11.2681
513 2 -0.996795 -0.561917 13.2173 12.812
541 1 2.09569 3.04081 13.0802 11.1245
480 1 1.86332 3.90859 17.436 12.5445
571 2 -0.883983 4.28039 15.8527 12.7986
783 2 -0.992542 1.15259 17.978 11.0523
937 1 1.94076 0.408532 14.366 12.2898
689 2 -0.961533 1.83047 13.9179 11.7427
952 2 -0.970409 4.21219 14.0352 10.5847
931 2 -0.90829 3.55704 17.4318 11.0146
473 2 -0.95407 8.72664 16.7596 10.1435
58 2 -0.958323 8.19987 17.2606 7.77092
610 2 -0.936417 5.4075 14.6524 8.45173
948 1 2.04694 8.37019 17.967 9.14089
992 1 1.98131 5.66303 14.1237 9.97866
378 2 -0.949051 6.64606 15.1798 10.7145
143 2 -0.989837 9.02666 14.9963 12.0625
502 2 -0.941082 7.54685 17.0497 12.3035
690 2 -0.984132 5.32784 18.1177 12.79
704 1 1.98698 7.98845 15.8828 11.2769
409 2 -0.800482 -0.831808 3.94903 16.0329
291 1 1.64628 0.342386 2.75714 16.3426
512 2 -0.946693 -0.0316537 6.47015 15.6042
248 2 -0.983173 2.12622 7.5868 16.4965
206 2 -0.855756 1.73536 3.29115 15.7555
183 1 1.93281 3.64015 7.20825 16.5157
545 2 -0.956679 4.05801 3.27429 18.368
399 1 1.89948 4.43758 5.39345 14.2438
597 1 1.89837 3.8571 4.85068 18.5439
935 2 -0.943359 3.69358 5.72816 17.1748
842 2 -0.884099 4.21429 6.80291 15.0464
791 2 -0.943806 4.14046 4.01646 14.9798
606 1 1.54209 3.06808 2.84171 14.9695
445 2 -0.91412 6.43089 2.48585 17.198
246 1 1.82828 7.80518 6.67617 16.1793
9 2 -0.933569 5.96149 5.17077 13.7587
483 2 -0.995962 6.68422 6.76082 17.2824
294 2 -0.927566 7.4221 7.63105 14.9709
429 2 -0.929519 9.00913 3.07417 17.8419
860 2 -0.972917 7.8178 5.52739 19.1089
724 2 -0.912042 7.99121 5.14827 15.5483
1073 1 1.89931 6.49643 6.33083 18.8332
1095 2 -0.955758 7.34471 2.96096 14.2461
1045 1 1.89084 7.37936 4.54845 14.1735
1051 2 -0.941003 9.20283 7.24389 16.7065
388 1 2.01895 0.620824 7.85999 16.0044
457 2 -0.981592 -0.113817 8.37687 17.331
529 2 -1.00186 2.74853 9.26557 18.8059
333 2 -0.998615 -0.442732 12.0976 16.9127
129 1 2.04501 1.05159 11.9679 17.3474
368 2 -0.984784 1.74933 11.1815 16.1013
193 2 -0.906476 4.52522 10.9268 17.8153
620 2 -0.942743 3.11142 10.1284 14.1843
709 2 -0.994918 0.810115 8.9748 14.9075
721 1 1.87225 -0.538194 8.07514 18.8434
830 1 1.86284 4.24584 9.44069 18.4168
819 2 -0.948251 4.53985 8.33718 17.278
881 2 -1.01254 0.885036 11.099 18.6173
837 2 -1.00643 0.925559 11.253 13.6366
991 1 1.98402 1.65189 10.3638 14.7446
18 2 -0.960294 8.27976 9.96482 15.1686
548 2 -0.885522 9.73112 9.68693 17.8796
518 2 -0.983032 5.8727 12.3063 15.9664
253 1 1.99546 6.29959 12.5252 14.4884
20 1 1.74956 8.90825 11.4191 15.215
658 1 1.93865 8.0388 8.82333 14.0621
623 1 1.46229 9.61487 8.13592 17.952
798 2 -1.01748 9.40263 8.27344 13.3639
831 1 1.85902 5.93664 11.7046 17.4909
599 2 -0.932616 5.41596 11.4187 13.7642
1080 2 -0.820757 9.12668 11.8897 16.8425
874 1 1.79763 8.73088 10.9275 18.105
862 2 -0.939419 7.91508 12.2772 14.3298
644 2 -0.974759 7.15875 10.6722 17.846
329 2 -0.808238 0.588659 18.2303 17.9285
87 2 -0.850862 0.772395 15.4527 13.4734
154 1 1.37448 -0.0321367 17.1136 18.9228
293 2 -0.881268 3.99572 14.9063 14.953
247 2 -0.902832 4.19744 15.1542 17.4172
121 2 -0.945969 2.85497 17.9932 13.6047
1075 2 -0.93854 2.64527 15.6774 19.162
649 1 1.76061 4.25149 15.5797 18.9563
1030 2 -0.945962 -0.504752 14.9496 15.7814
795 1 1.77395 0.5168 15.9541 15.0786
618 2 -0.84496 -0.0605609 17.4599 15.3278
801 2 -0.955108 1.62086 13.3759 17.8599
710 2 -0.948679 1.84306 15.9447 15.9959
781 2 -0.859625 0.260304 15.5617 18.5726
1138 2 -0.882703 4.04487 17.2998 16.2072
1136 1 1.78249 3.4371 15.8084 16.15
902 1 1.86059 1.49163 14.6046 18.9632
444 1 1.76941 7.98835 17.889 17.2382
437 2 -0.871159 5.04292 16.9826 18.945
185 2 -0.930814 5.99668 13.7915 13.6506
130 2 -0.861636 8.70639 17.3483 15.8812
258 2 -0.935492 6.22535 16.3707 14.3731
31 2 -0.933599 7.92914 16.5533 18.2005
172 1 1.90141 6.68729 17.693 13.4942
919 1 1.66128 5.04558 18.1556 17.8349
675 2 -0.962856 6.267 12.9582 18.3658
1010 1 1.73611 5.20563 15.2215 13.9029
794 1 1.49466 9.9931 16.447 15.5188
479 1 1.86003 11.0578 4.44612 5.48105
136 1 1.82155 11.3199 6.99312 6.88231
104 2 -0.931457 11.6563 3.81214 6.8339
295 2 -0.810023 12.3328 7.40406 3.86712
468 2 -0.872906 11.9366 4.1531 4.19998
387 2 -0.775364 13.596 3.55308 2.20087
55 1 1.10201 13.3668 6.79042 2.77433
84 1 0.908119 13.3142 4.3379 3.56326
492 2 -0.955135 10.3605 4.991 1.42123
872 2 -0.970107 11.0107 5.99377 5.65431
1106 2 -0.807842 14.9098 7.09068 3.22554
155 1 1.6611 12.6905 8.6049 4.91027
509 2 -0.904215 14.2804 8.75694 5.12031
451 1 1.69722 12.7819 11.5202 4.60134
1125 2 -0.891952 12.3342 10.0032 4.29244
981 2 -0.86219 11.8694 8.39128 6.35361
1140 2 -0.788257 15.5468 9.64226 3.03114
993 1 1.57111 15.4698 8.39198 4.11005
999 2 -0.918222 11.2964 12.2274 4.60474
733 2 -0.86058 13.3567 11.899 6.13902
764 2 -0.812696 13.9998 11.9411 3.58408
1037 1 1.24309 15.4361 11.2617 3.2619
1041 2 -0.490729 15.7203 12.7095 6.68302
25 2 -0.425842 16.8261 11.9328 3.75637
907 2 -0.496019 16.8248 8.22594 4.89888
235 1 1.86669 11.2397 15.9393 2.46019
400 2 -0.887307 12.4814 16.9442 2.42066
72 2 -0.910264 11.4071 15.3246 6.69057
2 1 1.73516 12.9098 15.6296 7.24229
555 2 -0.882608 13.2903 17.2143 7.04389
561 1 1.69111 12.8546 18.2448 1.49413
814 2 -0.898712 11.2136 15.4039 3.9725
858 1 1.72452 14.2184 12.9696 7.04276
1071 2 -0.878791 13.8571 14.4635 6.55607
645 2 -0.484593 15.8047 18.1976 7.06956
767 1 1.84884 10.3912 15.3059 5.40924
232 2 -0.928837 11.7583 4.39644 9.42522
357 2 -0.90746 12.415 6.16667 7.72313
487 1 1.75977 12.472 4.58501 8.00876
531 2 -0.881429 13.8661 3.78575 7.77316
244 1 1.85867 10.9591 3.21088 10.0854
528 2 -0.870524 10.7198 6.00292 12.6899
323 2 -0.487807 14.0504 3.36927 11.3202
54 2 -0.888421 10.4325 3.59992 11.5742
703 1 1.45636 11.1164 11.8093 10.0603
593 2 -0.693335 12.1777 10.44 10.2222
233 2 -0.858919 11.1355 8.28956 11.4171
543 1 1.38982 12.1336 9.50914 11.6422
394 2 -0.735858 13.3673 9.65997 12.6739
240 2 -0.827574 10.9124 11.3246 12.0566
412 2 -0.890368 12.9954 15.3244 8.80786
132 2 -0.920374 13.9156 12.9625 8.60901
385 2 -0.837442 14.4398 17.6885 9.31029
1108 1 1.70635 13.1287 13.9162 9.67543
841 2 -0.921915 11.7494 13.2627 10.0346
1101 1 1.67625 14.3361 18.1851 7.76464
450 2 -0.856748 13.8782 14.3388 11.0973
174 1 1.67774 13.6258 17.9097 10.7338
217 1 1.98395 10.3631 15.1287 12.8974
701 2 -0.904516 11.6595 15.5356 12.0337
1028 1 1.72743 13.2833 15.3634 12.2354
888 2 -0.844034 13.8881 16.8301 11.888
693 2 -0.877482 12.0113 17.9671 10.3434
147 1 1.96508 10.4093 3.83289 18.1014
358 2 -0.941092 10.899 4.46224 16.742
308 1 1.43058 11.7159 4.14028 15.4367
1148 2 -0.874878 10.7893 3.80777 14.1742
1096 2 -0.833554 13.0128 3.20869 15.5858
817 2 -0.993409 11.451 2.79843 18.7067
895 2 -0.453839 13.0787 6.65734 18.9612
209 1 1.69779 11.1053 12.125 13.4205
52 2 -0.873539 10.3804 11.259 14.6203
62 2 -0.752107 12.7619 12.1053 13.7194
272 1 0.848975 13.8536 10.9374 13.657
362 1 1.36866 11.7763 15.0578 17.4321
178 2 -0.886464 13.5402 14.9278 13.7972
1 1 1.65077 13.9864 14.9786 15.3135
234 2 -0.491689 15.4549 14.2691 15.3486
6 2 -0.861785 11.6852 14.9106 19.0586
760 2 -0.957875 10.6376 13.6514 13.4379
915 2 -0.830112 11.7478 17.0123 16.4938
1043 2 -0.803476 12.9153 14.3779 16.4728
1090 1 1.57948 13.2573 17.7136 16.334
1034 2 -0.813693 13.7659 17.7641 17.8956
1122 2 -0.826614 14.1303 16.5799 15.5619
1113 2 -0.737738 10.3208 15.1824 16.6151
799 2 -0.974605 10.3658 16.2164 14.0179
349 2 -0.77183 31.3725 3.23559 1.52961
734 2 -0.794269 31.3527 5.61106 2.53047
685 1 0.950077 32.0776 9.48884 3.26925
873 2 -0.81962 32.7482 9.75001 1.82406
342 2 -0.513111 31.4248 17.8944 4.78812
745 2 -0.511974 32.4084 14.0738 2.5912
672 2 -0.733593 31.8143 6.16051 10.9849
625 2 -0.111133 23.7621 12.1572 8.82807
635 2 -0.0983933 24.6073 11.7271 9.57431
1115 2 -0.445214 30.6132 8.09149 9.74061
856 1 1.58611 32.121 7.67233 10.1571
1141 2 -0.473999 31.7713 11.892 12.5084
204 2 -0.929882 32.4674 6.481 15.4522
346 2 -0.810361 31.0436 5.43365 17.5593
237 1 1.2604 30.8965 4.738 18.9753
650 1 1.78025 32.3245 6.39717 17.0245
79 2 -0.934725 32.1949 7.72465 17.9122
279 2 -0.467918 31.4404 10.1005 17.3677
955 1 1.69698 32.6619 9.22373 18.0649
536 2 -0.869503 38.2338 4.19184 4.1335
4 2 -0.98493 34.9839 4.35366 6.71562
425 1 1.98999 34.4427 3.99617 5.27612
242 2 -0.792376 33.8981 6.33841 2.29428
268 2 -0.915104 33.3095 4.9776 4.73308
424 1 1.62978 33.0103 2.68258 1.82551
146 1 1.34495 32.8416 5.57997 3.31001
980 2 -0.878842 37.8168 6.86679 4.74522
908 2 -0.924179 36.9468 2.70591 2.31334
696 1 1.96171 37.0158 3.1674 3.90001
702 2 -1.0138 35.7171 3.93806 4.341
755 2 -0.824149 33.7873 4.04232 2.09004
592 2 -0.949108 33.8409 2.51806 5.40252
315 2 -0.913168 40.2959 6.08612 4.23371
124 2 -0.966436 39.3225 5.1841 6.32834
60 2 -0.900353 41.0051 3.11976 3.11276
366 2 -0.91713 41.7971 4.33606 5.30186
352 1 1.74681 41.592 2.87826 4.58317
360 2 -1.05538 42.8656 5.88187 3.43073
175 2 -0.95104 42.3153 6.99546 5.60531
408 1 2.05506 44.0092 5.37418 2.44354
123 2 -0.980934 43.1989 4.16819 1.77533
866 1 1.8168 38.9051 5.59499 4.84485
876 1 1.87402 41.7212 3.57145 1.72035
651 1 1.88974 41.8444 5.79761 4.62314
825 2 -0.947655 43.0481 2.48769 4.00736
507 1 1.83198 37.1241 8.27877 4.14865
344 1 1.72103 38.1041 11.2109 3.32602
485 2 -0.92572 34.3796 10.6408 5.46118
325 1 1.91339 35.9396 12.1287 1.45143
950 2 -1.00434 35.6563 8.45581 4.66542
774 2 -0.942099 37.1141 8.10806 2.56476
906 2 -0.834535 37.8882 9.78133 4.24206
930 1 1.93353 34.3191 9.04617 5.26844
1012 2 -0.96813 34.1006 8.32923 6.62997
1150 2 -0.811795 32.9375 8.77392 4.40564
923 2 -0.915311 36.315 12.2243 6.56669
1133 2 -0.961324 36.5782 11.6854 2.85176
1019 1 1.4608 35.0131 12.1161 5.68771
144 2 -1.00809 41.7887 11.297 3.58963
156 1 2.01316 42.789 12.2111 2.85867
211 2 -0.905592 44.0188 12.7721 6.23746
775 1 1.88934 41.437 8.62888 1.45967
807 2 -0.93054 40.6299 9.86836 5.43893
953 2 -0.944247 41.0809 8.77407 3.02864
694 1 1.91623 41.6213 9.79105 4.18341
1046 1 1.86137 43.572 7.98881 5.56078
1050 2 -0.962194 42.9899 9.25359 4.69717
890 2 -0.951819 43.8568 8.42992 7.04969
956 1 1.93 40.4534 10.1543 7.03421
797 2 -0.896866 38.6868 12.5607 4.11071
800 2 -0.949908 39.0162 10.8778 2.06886
962 2 -0.95044 40.5084 11.7659 7.15295
86 2 -0.92668 38.2251 15.28 4.58509
494 2 -0.901106 35.8749 15.5105 5.66806
93 1 1.77819 33.8913 14.3639 2.01912
652 2 -0.823405 37.6918 16.5322 7.00187
768 1 1.80226 37.2869 16.3167 5.40674
758 1 1.81711 34.5026 14.9262 4.8929
698 2 -0.981007 34.7341 14.7924 3.31994
1066 2 -0.891914 34.2196 13.4929 5.51453
773 2 -0.972926 37.0885 17.7453 4.72776
833 2 -0.963885 33.2578 17.6636 3.09944
851 2 -0.863638 33.2793 15.9114 5.13492
966 1 1.80319 32.9327 17.4417 4.62282
1006 2 -0.948305 34.6582 13.0262 1.54872
299 1 1.92621 41.4354 17.1645 7.14142
53 2 -0.991917 42.7649 15.912 3.78958
554 2 -1.06297 43.0178 17.3098 7.20244
605 1 1.90375 39.0984 13.9329 4.91132
716 2 -0.978523 39.1058 13.6759 6.44446
1151 2 -0.936557 40.636 14.3904 4.62428
670 2 -0.931535 40.5543 15.7514 2.43383
883 1 1.96582 41.5559 14.9412 3.46593
765 2 -0.903005 41.0183 17.7151 5.64372
926 2 -0.975217 42.1742 13.7126 2.71953
784 1 1.79623 43.9024 17.098 3.91963
260 2 -1.04891 35.3379 6.44892 8.10867
36 2 -0.958488 35.5658 4.00394 9.24843
637 2 -0.960507 37.3613 4.96394 7.8167
713 1 2.01592 35.7952 4.95794 7.9613
790 2 -0.883938 33.0227 7.27545 8.8372
229 2 -0.996451 36.8342 5.33505 11.1049
676 1 2.10753 38.0736 5.42177 12.0753
838 1 1.83825 35.607 4.3518 10.8454
843 2 -1.00409 35.4803 3.17935 11.9467
886 2 -0.936275 34.3981 5.28939 11.0926
1081 1 1.30073 32.9249 5.1838 11.6683
488 1 1.99674 38.9681 5.44649 7.84972
978 2 -0.9593 39.813 4.47818 8.82303
995 2 -1.08218 39.1659 6.94962 8.20792
622 1 1.92395 41.0814 3.51218 8.9763
796 2 -0.938522 42.4465 4.26103 8.51932
977 2 -0.959726 42.7324 7.50524 9.35697
777 1 1.79599 44.0645 4.26333 8.24538
264 1 2.0644 39.9477 2.92458 11.7977
322 2 -0.976215 40.6429 2.6729 13.1871
897 2 -1.07551 38.8868 4.08137 11.9932
904 2 -1.05964 38.983 6.68601 11.6806
1097 2 -0.917238 41.0033 3.20646 10.5726
771 2 -1.02599 41.5336 7.3662 11.6709
921 1 1.92319 42.9487 7.30802 10.9366
806 2 -0.962516 43.714 5.94327 11.2624
735 2 -0.975221 37.381 8.48338 9.47685
878 2 -1.0237 34.9029 8.8691 9.11997
686 1 1.93622 34.3843 7.7217 8.11579
1118 1 1.88195 36.0498 9.08133 10.149
772 2 -0.897774 38.211 12.5002 8.46871
741 1 1.74261 36.6718 12.8896 8.01319
779 2 -0.879233 35.5759 12.3368 9.06943
334 1 1.87208 34.0317 8.73097 12.3238
440 2 -0.926354 33.8175 10.1726 12.9699
119 1 1.77222 35.6533 11.9677 10.6379
78 2 -0.870246 34.106 11.9077 11.1817
515 1 1.75365 33.3595 11.6507 12.5986
627 2 -0.90178 35.454 8.40273 11.5562
725 2 -0.937426 32.8805 8.60173 11.2537
1142 2 -0.947452 36.4145 10.5332 10.6812
210 1 2.07728 38.9026 8.31155 8.91054
364 2 -0.940021 41.6912 9.55856 7.84435
392 2 -1.02237 39.7946 8.49284 10.2202
3 1 1.85436 39.6314 12.8954 7.75105
882 2 -0.986164 39.2382 9.38151 7.79048
614 1 1.89735 43.002 8.75081 8.34793
744 2 -0.927578 43.9105 9.73475 9.33603
101 1 2.10424 40.0418 7.82473 11.6075
563 2 -0.967911 44.0124 8.42135 11.4471
66 1 1.74314 40.5131 12.3597 12.6335
861 2 -0.958257 39.8787 8.75325 12.9523
1042 2 -0.875101 38.9501 12.3847 12.4223
1149 2 -0.516816 41.1017 11.2938 11.5971
271 1 1.76271 36.9213 16.0171 8.37392
33 2 -0.867925 35.6535 17.0027 8.68522
77 2 -0.474849 33.0149 16.9384 8.35813
692 2 -0.8998 38.0038 16.1715 9.54411
877 2 -0.915041 36.3902 14.4689 8.2233
668 1 1.42975 34.2456 16.9361 9.33054
22 2 -0.955577 38.1913 14.9882 11.9721
522 2 -1.01111 36.5618 16.9722 11.4021
32 2 -0.892572 34.1791 17.0885 10.9092
893 1 1.90712 37.7282 13.493 12.3022
929 1 1.90671 35.27 17.5575 12.0573
1111 2 -0.944806 36.4369 13.1546 11.4032
1009 1 1.9464 38.0401 16.3988 11.165
250 2 -0.828722 40.4622 13.8055 8.85319
274 2 -0.938649 41.342 15.5919 7.48705
190 1 1.85584 41.8814 14.637 8.62769
391 2 -0.915045 42.9893 13.5257 8.39582
212 2 -0.973376 40.7806 18.1037 8.21501
1057 2 -0.94799 42.3431 15.4408 9.98986
340 2 -0.968453 39.0561 17.6015 11.4618
459 2 -1.00697 42.7054 15.9108 12.6199
150 2 -0.985306 43.5742 17.534 10.7395
681 2 -0.933303 41.2155 13.8127 12.4745
983 1 1.97871 43.2877 16.022 11.1267
142 2 -0.89626 37.1204 4.62613 15.6656
396 2 -1.04525 37.4652 5.74537 13.5116
472 2 -0.968845 37.6126 2.81162 17.5911
356 2 -0.866847 33.6912 5.61081 17.4224
48 1 1.49009 34.6325 5.70089 18.7446
947 1 2.02999 36.6514 5.97929 14.8449
1128 1 1.93348 37.5786 3.08926 15.9944
736 2 -0.985804 37.1053 7.28879 15.6422
868 2 -1.00512 35.0575 6.00905 14.7255
1114 2 -0.873881 35.9653 6.51086 18.4949
613 1 1.94403 33.578 6.36535 14.3233
889 2 -0.832973 32.9532 5.234 13.272
640 1 1.60762 37.298 7.22689 19.0314
287 2 -0.988297 40.6099 4.62853 14.7731
288 2 -0.976188 39.8406 5.91825 16.9211
524 1 1.89515 39.9729 6.02196 18.5283
281 1 2.06421 40.4062 3.03832 14.7324
83 1 1.9399 40.9069 5.88359 15.7185
95 2 -0.908216 42.4253 5.884 16.2186
397 1 1.76009 43.8168 5.40224 15.3773
375 2 -0.944655 40.6161 4.68082 19.0841
202 2 -1.00748 41.7872 2.40484 18.338
90 2 -1.02302 41.3108 2.33517 15.7715
763 2 -0.924751 38.5307 6.19495 19.1617
1031 2 -1.01941 38.9491 2.72712 15.2153
845 2 -1.02767 40.561 7.15082 14.8308
728 2 -0.912592 43.4437 5.3983 13.774