ITEM: TIMESTEP
0
ITEM: NUMBER OF ATOMS
576
ITEM: BOX BOUNDS pp pp pp
-3.1662119372314077e+00 2.3751789648828723e+01
2.4397297797306008e+00 1.8145847931862118e+01
1.5469184683713184e+00 1.9038659243222867e+01
ITEM: ATOMS id type q x y z
366 2 -0.965983 0.607867 4.41596 5.38715
470 1 1.8525 2.70071 7.96002 5.95622
315 2 -0.984293 -0.605011 6.50308 4.56756
290 1 1.9739 -2.09717 6.03166 4.90153
474 2 -0.930865 2.15657 9.19111 4.96514
175 2 -0.936155 1.48058 6.88593 6.00446
377 2 -0.955256 0.318674 8.9799 3.08445
75 1 1.94972 0.824408 5.93773 4.90461
402 2 -0.938603 -1.12579 4.30689 8.51578
488 1 1.96332 -2.02274 5.48894 7.90656
360 2 -0.993084 1.89439 5.87854 3.74678
220 2 -0.91009 1.47118 4.40196 8.24468
408 1 1.87206 2.83688 5.26113 2.59149
46 1 1.91305 0.253768 3.61959 8.9227
124 2 -1.01304 -2.22609 5.37825 6.31794
210 1 1.88252 -1.88956 8.27211 8.91226
38 1 1.91074 2.16016 8.87596 8.73827
314 2 -0.918201 3.03582 8.48857 7.40879
419 2 -0.982745 -1.38525 6.88961 8.25876
306 2 -0.887278 -1.76074 9.3524 7.71013
401 2 -0.913647 1.77439 7.61259 9.66296
118 1 1.85048 0.747635 9.73945 4.41702
201 1 1.78424 3.09504 4.16025 8.16133
364 2 -0.947288 0.819009 9.54249 8.10662
231 2 -0.900494 -0.324572 9.52348 5.57055
60 2 -0.928163 -0.174887 3.04437 3.23029
352 1 1.81825 0.547077 2.99718 4.67253
168 2 -0.939105 3.05586 9.79544 9.61052
536 2 -0.917137 -2.55106 4.74127 4.00981
123 2 -0.897848 1.82896 4.22043 1.84469
380 1 1.81342 -0.392677 9.99556 7.12856
300 1 1.80116 0.31412 3.56916 1.78016
432 2 -0.94208 -0.0984643 6.92899 1.69351
484 2 -0.865981 3.5388 3.32865 6.8575
249 2 -0.990239 2.03926 2.61236 4.35997
40 2 -0.951592 3.49694 3.47465 9.55587
199 1 1.8564 0.325131 8.49333 1.56927
50 2 -0.904787 3.30745 6.53119 1.62591
404 2 -0.924487 -2.89613 7.4 4.81827
392 2 -0.915026 -1.09241 8.64567 10.282
550 1 1.87666 6.8961 3.9958 9.65574
311 2 -0.879485 9.32988 8.08926 4.97001
173 1 1.89273 5.71078 4.65003 3.55218
228 1 1.79327 5.24622 9.87046 2.14623
464 2 -0.916888 8.75481 6.15359 2.14524
553 2 -0.955202 5.87356 6.89112 6.88583
289 1 1.84177 9.71501 8.93781 3.67791
186 2 -0.936763 8.76451 2.52231 4.45409
57 1 1.91876 9.68624 7.9787 6.60706
558 2 -0.939594 8.48675 4.00486 9.91933
131 2 -0.941597 8.2062 4.26425 6.22047
498 1 1.98643 5.54449 7.13985 5.35693
111 1 1.78565 7.82646 9.60063 8.63134
324 2 -0.904389 3.903 9.00591 2.44332
381 1 1.89512 10.0565 3.82357 9.58545
422 2 -0.949464 6.32671 4.99224 8.55929
273 1 1.97229 9.46954 5.07217 6.79678
476 2 -0.873777 3.82939 5.60845 7.96634
411 2 -0.972102 3.92276 7.21853 5.30551
180 2 -0.957175 6.14843 8.62926 5.14153
107 2 -0.970922 9.12848 6.55568 7.09504
278 2 -0.974239 5.13463 7.22273 9.46409
239 2 -0.928001 4.14734 4.52155 3.14142
227 1 1.88428 7.58197 2.98821 5.43213
493 2 -0.875225 6.26361 3.51162 4.58576
256 2 -0.949505 6.05559 6.08128 4.30508
373 2 -0.975115 6.57376 4.63789 2.21085
35 2 -0.943356 8.54338 9.19692 2.59164
236 1 1.87535 5.32082 6.22996 8.23241
501 2 -0.898058 8.92314 9.06019 7.48433
420 2 -0.924989 7.36494 8.38242 9.58885
163 1 1.76938 6.22498 10.1706 5.03321
27 2 -0.922552 6.48739 2.46435 9.41678
13 2 -0.989068 10.0587 4.27436 8.03297
497 1 1.7687 10.278 6.64913 1.86954
529 2 -0.94652 6.33173 8.84189 1.57616
269 2 -1.00528 -0.524821 7.00165 14.6375
95 2 -0.953027 1.41111 6.20936 16.2422
287 2 -0.967588 -0.085409 4.55234 15.3742
345 1 1.84161 1.97694 7.32272 11.2825
83 1 2.00306 -0.129344 6.07015 15.7889
101 1 1.883 -0.924428 7.80291 11.6246
288 2 -1.01441 -1.20309 6.3667 16.935
195 2 -0.980534 0.490475 7.17228 11.802
230 2 -0.923647 2.85536 5.99736 11.5147
397 1 1.85122 2.66745 5.43831 15.6153
285 2 -0.916931 -1.26951 8.76453 12.8834
321 2 -0.968977 -2.10594 4.01261 11.9154
152 2 -0.92755 2.42945 5.31925 13.9911
563 2 -0.958839 2.78117 8.5842 11.8894
569 1 1.93428 -0.905766 8.54922 14.4385
328 2 -0.917157 -2.09269 6.62734 11.4836
41 2 -0.94687 -2.2187 8.93163 15.3058
264 1 1.91143 -0.738959 3.1281 11.7156
524 1 1.87065 -1.30761 6.09891 18.5006
281 1 1.90811 -0.353085 3.05332 14.6933
369 2 -0.951218 0.337007 9.38098 14.9347
98 2 -0.944462 -0.727655 9.33802 18.2115
409 2 -0.870236 3.06025 4.04586 16.3704
322 2 -0.920957 -0.0430743 3.27228 13.163
521 2 -0.926092 0.228142 3.67877 10.5552
100 1 1.86653 -2.86031 5.39244 12.1548
516 1 1.86085 3.33244 5.03105 12.7203
151 2 -0.895105 1.76888 8.54224 18.3361
375 2 -0.916114 -0.863592 4.58596 18.8375
145 1 1.78749 3.28777 8.105 18.7495
455 2 -0.919226 -2.01385 2.80397 14.9021
463 2 -0.916665 3.09251 3.53007 12.186
363 1 1.80518 -2.12273 10.0958 18.2546
309 1 1.84331 3.38446 2.60524 10.9357
202 2 -0.91917 0.457451 2.44474 18.0731
396 2 -0.951922 -2.94794 5.83129 13.7254
472 2 -0.920656 -2.84771 2.58198 17.3687
187 2 -0.945753 -2.76169 6.54364 18.9791
359 2 -0.95226 7.19652 5.97388 17.5215
399 1 1.91088 8.73726 5.34182 14.447
486 2 -0.901332 5.16538 9.29336 10.959
248 2 -0.954401 6.29965 7.6195 15.8264
9 2 -0.901506 10.2451 5.0467 13.9002
139 2 -0.910755 4.92249 5.36731 12.9983
318 1 1.93535 6.3804 5.65324 12.31
183 1 1.9573 7.63098 7.19252 16.5281
243 2 -0.954861 8.2421 8.38054 17.4062
512 2 -0.925469 3.96723 6.36662 15.7388
245 1 1.81937 9.8259 8.73196 11.7894
545 2 -0.941918 8.63758 3.96082 18.2591
447 2 -0.956546 7.62758 5.3547 13.3029
291 1 1.80469 4.35878 3.03036 16.4416
206 2 -0.908805 5.73073 3.75347 15.9371
215 2 -1.00036 8.34356 4.11088 15.3531
559 1 1.90995 6.10077 7.99476 10.4871
266 2 -0.946038 8.55204 6.67741 15.3284
30 1 1.80706 7.11221 3.10723 15.4685
21 1 1.90347 7.73102 5.20215 18.8212
24 2 -0.944524 8.35431 9.2471 11.976
133 2 -0.97499 4.4644 8.94744 14.8521
388 1 1.8725 4.69723 7.78023 15.9292
8 2 -0.92996 9.97889 7.32804 11.0611
88 2 -0.949825 6.295 4.58813 11.0789
44 2 -0.986688 6.84044 9.85316 13.9969
367 2 -1.00628 6.45482 7.10707 11.7094
406 1 1.84025 3.61425 9.74523 11.1236
254 1 1.86343 7.78448 9.30543 18.6703
457 2 -0.899715 4.24505 8.30681 17.4505
343 1 1.91253 8.81937 2.48347 17.6913
415 1 1.98208 5.47371 10.1413 14.6879
121 2 -0.998571 6.98669 2.46789 14.0017
391 2 -0.945756 1.81833 13.2155 8.53902
274 2 -0.912835 0.336749 15.3085 7.59281
156 1 1.90949 1.78673 12.0438 2.92246
575 2 -0.909367 -0.337847 14.3903 4.51312
299 1 1.85709 0.55778 16.8457 7.14084
554 2 -0.929626 2.20128 16.8315 6.93504
3 1 1.86252 -1.52516 12.6957 7.59341
250 2 -0.903894 -0.768542 13.3611 8.85355
29 1 1.95345 -1.87701 13.9764 4.84264
53 2 -1.03538 1.9308 15.7877 4.0641
307 1 1.9468 0.762142 14.9339 3.44192
140 2 -0.998453 -1.94373 13.6745 6.40047
144 2 -0.919319 0.81443 11.3021 3.92682
386 2 -0.904686 -0.523124 11.6105 6.99216
190 1 1.85419 0.572796 14.2254 8.81087
350 2 -0.928892 1.33242 13.6082 2.77813
208 1 1.97489 2.88891 17.031 3.94339
211 2 -0.882661 2.97868 12.8866 6.14815
94 2 -0.941621 -0.158104 15.6934 2.32925
70 2 -0.958692 3.20877 11.9328 3.59696
442 1 1.89826 3.16193 13.1242 7.72728
189 2 -0.873493 0.0144163 17.4989 5.7598
221 2 -0.944322 -2.18904 12.632 3.98406
224 2 -0.972651 -2.30983 10.703 2.22034
86 2 -0.93888 -2.83055 15.1733 4.45254
116 2 -0.940469 -2.55243 16.6806 9.31359
196 2 -0.942792 -2.94654 12.1574 8.01703
212 2 -0.953489 0.201579 17.8453 8.31971
481 2 -0.94654 0.819066 15.0467 10.1444
76 2 -0.925337 -3.02554 16.3794 6.76301
344 1 1.84888 -3.01002 11.3591 3.47465
448 2 -1.00914 3.54273 17.1755 2.51969
197 2 -0.909658 -3.12851 17.9254 4.60987
517 2 -0.924748 6.45056 10.3357 8.18737
106 2 -0.932753 3.97121 16.9513 5.13937
176 2 -0.948562 6.35052 15.1893 7.28802
439 2 -0.876733 5.99845 10.5641 3.45557
226 1 1.87651 5.15888 15.5036 8.30017
523 1 1.8115 3.6681 17.3793 6.63479
414 2 -0.990025 5.02011 13.4596 4.79405
277 2 -0.949349 8.66531 10.6494 9.54302
65 1 1.85842 5.87152 11.8564 8.32088
413 2 -0.947897 6.64836 15.4639 4.68016
526 2 -0.877547 7.61344 10.8144 5.58345
73 1 1.76311 7.56862 16.1231 1.97628
252 2 -0.897937 8.66147 15.2396 6.37482
166 2 -0.96222 3.91944 14.5463 7.92335
337 2 -0.932555 7.4584 13.1288 4.64579
34 2 -0.928057 9.13592 14.2156 8.86207
540 2 -0.926252 8.39614 14.9217 2.6332
71 2 -0.940774 5.77276 15.6423 9.77666
496 1 1.77754 10.1395 11.1269 9.96454
499 2 -0.920873 6.14897 16.8708 2.25581
365 2 -0.934678 4.5924 16.956 7.88455
453 1 1.76652 7.86243 12.3773 6.02761
431 2 -0.895032 9.28136 12.8784 6.60254
491 2 -0.909606 10.1109 12.9264 3.2664
449 2 -0.960116 5.99555 13.8118 2.4772
438 2 -0.876952 4.8241 10.9578 5.55598
14 2 -0.929897 4.30609 12.0384 8.10311
335 1 1.94617 6.2682 13.9846 4.03386
506 1 1.7949 3.99537 12.2592 4.9868
336 1 1.88187 7.17787 15.8605 6.11323
421 2 -0.960177 7.14822 17.4573 6.31003
26 2 -0.910888 6.17124 12.492 9.83894
410 2 -0.939237 6.81821 12.59 7.25934
460 1 1.88161 9.56505 13.9109 2.11263
11 1 1.79381 9.64171 14.2699 7.30528
135 2 -0.932434 1.82692 13.6152 17.3857
138 1 1.85601 2.08164 14.7683 16.2337
544 2 -0.577133 -0.996693 15.6826 13.9812
393 2 -0.962161 1.81685 16.209 16.9615
66 1 1.77479 -0.522037 12.1349 12.5227
19 1 1.89024 1.94901 12.0597 17.4574
428 2 -0.935647 1.16596 14.4835 14.9696
389 1 1.73717 0.378291 14.9439 13.5882
459 2 -0.909797 1.28342 15.8926 12.5952
153 2 -0.965972 -0.652207 16.0475 17.2513
115 2 -0.853998 -2.15803 11.4213 17.2874
407 1 1.88104 1.85752 15.7894 11.1034
105 2 -0.884667 0.111272 13.6427 12.6378
466 2 -0.906955 -2.02763 12.302 11.967
462 1 1.98103 0.534632 17.0448 16.9094
351 2 -0.899854 0.89783 11.3932 16.3857
573 2 -0.524275 0.419899 11.2758 11.5749
398 1 1.78133 -2.47827 13.072 17.3703
547 2 -0.948743 -0.420211 11.5849 14.0251
340 2 -0.97756 -1.13484 17.3028 11.4075
427 2 -0.984411 2.1014 11.2517 14.066
263 1 1.96744 0.768853 10.9425 14.8528
433 1 1.91454 -2.25975 16.3205 10.8805
22 2 -0.946321 -2.15248 14.7126 11.0833
508 2 -0.863894 -1.4573 13.9299 18.3757
161 2 -0.934312 -2.53104 13.7046 15.8839
435 1 1.96352 3.40612 11.8426 13.2722
141 2 -0.953318 3.26784 14.9879 11.252
513 2 -0.967134 3.36396 13.4543 13.2298
317 1 1.98237 -2.94947 13.577 11.8843
150 2 -0.930007 2.24834 17.2404 10.5102
489 1 1.84116 -1.26757 15.52 18.6612
90 2 -1.00706 0.46858 17.6948 15.4619
500 2 -0.958262 1.70241 11.469 18.922
333 2 -0.966924 3.36484 11.7141 16.749
7 2 -0.939842 3.41111 11.1622 11.8298
576 2 -0.923365 -2.68638 16.2308 18.9835
255 1 1.94445 9.08699 11.6093 17.5868
329 2 -0.958858 4.82118 18.0038 17.7897
378 2 -0.922679 10.2575 15.0687 11.2115
454 2 -0.953339 3.58699 14.924 15.7698
562 2 -1.23611 7.59786 17.6832 16.6222
56 1 1.84265 6.09969 17.0444 10.5141
416 1 1.91087 9.39995 13.963 10.456
518 2 -0.977777 9.02615 11.9197 16.0048
368 2 -0.924078 5.76204 10.7173 16.1684
541 1 1.98935 6.70354 12.9336 11.3248
445 2 -0.947071 10.2367 17.9942 17.0256
355 2 -0.958637 7.31828 17.0875 11.5216
480 1 1.9308 7.88064 17.3994 12.9609
560 1 1.90078 7.24433 16.0584 16.5835
23 2 -1.02413 9.04938 11.1951 13.6163
185 2 -0.965546 9.28415 13.721 14.1029
261 2 -1.02451 4.73358 11.3267 13.9308
253 1 1.99888 9.69916 12.2457 14.6051
114 2 -0.958772 9.37494 17.9588 12.964
341 2 -0.976241 7.02881 11.571 12.0958
305 2 -0.932562 4.84228 11.0426 18.625
376 2 -0.94502 8.01506 13.8027 11.244
434 1 1.96894 9.10476 15.2117 14.5454
437 2 -0.974982 8.59832 17.1874 18.8912
87 2 -1.00142 4.5329 15.7601 13.4687
478 1 2.02096 7.84484 10.4458 12.9316
225 2 -0.872362 5.68317 13.1487 17.3157
193 2 -0.982453 7.89247 10.8331 18.2148
99 2 -0.942819 9.18843 13.0524 18.2818
129 1 1.82919 4.91778 11.6775 17.16
134 2 -0.994351 5.90298 15.8518 15.7728
219 1 1.92166 4.47105 16.012 15.0107
113 2 -0.977084 5.53363 13.819 12.0166
207 2 -0.917337 4.77941 17.5353 11.3052
293 2 -0.987215 8.51194 15.3767 16.0011
361 1 1.96873 4.23309 14.57 12.4616
205 2 -0.9526 4.58453 15.4103 18.4326
571 2 -0.952242 8.03397 15.9081 13.6273
247 2 -1.13139 7.08899 15.3243 18.0418
326 1 1.70916 5.74334 14.3201 18.4096
42 2 -0.904381 3.99838 17.5389 15.4183
348 2 -0.9554 10.1744 12.5716 10.6482
154 1 1.89982 4.69168 16.9049 18.9931
570 1 1.90337 12.8671 5.60971 2.64221
91 1 1.93665 12.4031 7.74224 7.92905
162 2 -0.917055 12.824 5.45146 4.19688
370 1 1.81137 11.9202 4.41855 5.09301
170 2 -0.954922 13.5881 6.89905 7.32485
296 2 -0.902046 15.0883 5.35733 5.86388
405 2 -0.917686 15.7866 7.95511 6.33075
136 1 1.84833 15.1403 6.64526 6.89563
357 2 -0.888175 15.921 6.0185 8.13689
295 2 -0.873154 15.7354 8.0306 3.71768
45 2 -0.934842 12.8943 9.10844 8.622
479 1 1.88268 14.4591 3.85435 6.24925
171 2 -0.940606 12.8732 3.9046 6.23515
382 2 -0.985789 11.2279 8.0992 6.87373
112 2 -0.948168 11.6854 6.84817 9.09654
59 2 -0.878745 15.9254 3.94569 3.0889
487 1 1.83163 15.9669 4.48031 8.71769
104 2 -0.962216 15.0593 3.61169 7.72036
320 2 -0.926813 11.3195 3.19154 4.21698
43 2 -0.954943 13.3289 7.0987 2.28156
55 1 1.76233 16.2271 7.88441 2.17727
155 1 1.79797 16.6867 8.3003 5.06521
284 2 -0.900159 11.3268 5.42712 2.11986
49 2 -0.934665 16.4837 6.32449 1.82169
5 2 -0.94391 10.6084 5.18987 5.6482
446 2 -0.907096 10.6031 7.91715 2.82631
468 2 -0.956914 14.8796 2.84392 5.14688
84 1 1.84961 16.0824 2.6985 4.12031
418 2 -0.957276 13.2884 2.81145 9.99218
492 2 -0.956181 13.6314 4.51316 1.79374
549 2 -0.901781 16.9206 9.94997 5.12101
232 2 -0.943254 15.2942 4.51067 10.1777
257 2 -0.935855 19.5005 2.5268 2.93536
179 2 -0.829306 20.4735 4.60192 1.65758
198 2 -0.945559 22.8978 8.50854 2.748
126 2 -0.910031 21.9553 4.25868 4.36547
342 2 -0.916835 17.5523 2.64671 4.81103
330 2 -0.881121 23.6576 10.2303 4.59791
48 1 1.7927 20.3207 6.30268 1.64124
302 2 -0.891889 20.9381 9.09398 9.12399
268 2 -0.877288 19.9394 5.59136 5.45514
417 1 1.70617 18.8928 9.66028 2.63235
374 2 -0.920015 21.7161 8.61279 5.26438
4 2 -0.910727 21.6461 4.42516 7.00763
36 2 -0.994922 21.1121 4.85967 9.49178
237 1 1.70389 17.0621 4.93076 2.36947
137 1 1.8974 21.8581 5.4722 8.26043
120 1 1.82148 23.3354 3.53906 3.8013
509 2 -0.930411 17.9633 7.33077 4.9681
214 2 -0.918508 19.0713 7.35229 8.96904
331 2 -0.565119 20.0712 9.22851 1.67454
260 2 -0.952612 21.3719 6.93793 7.81424
61 2 -0.930751 23.4453 5.43513 8.63921
530 2 -0.913905 17.5158 8.89722 2.20945
158 2 -0.957827 18.1325 5.10382 3.61768
436 2 -0.911058 19.7839 8.97002 6.83864
574 2 -0.895756 19.3708 9.24794 4.14233
159 2 -0.972542 23.5187 8.28429 9.35808
354 1 1.88379 20.3572 9.49098 5.43185
425 1 1.86779 20.9183 4.25491 5.62284
110 1 1.88087 20.2463 8.07827 8.09927
542 1 1.88053 22.336 9.03778 10.102
16 2 -0.939625 19.9691 3.00997 5.54753
242 2 -0.964248 19.9905 6.73394 3.13749
332 2 -0.848186 23.1369 2.92848 2.23657
146 1 1.79186 19.017 6.27154 4.31471
531 2 -0.929483 17.3979 3.84028 8.68824
507 1 1.76892 23.068 8.6767 4.41836
358 2 -0.956434 15.2504 4.27475 17.2163
222 2 -0.981314 12.9019 8.44505 13.528
475 2 -0.876814 13.1384 6.90997 17.2723
528 2 -0.906471 14.6412 6.50462 12.9958
294 2 -0.967139 11.4661 7.30364 15.3484
82 1 1.93772 11.5686 8.51413 14.4044
572 2 -0.943321 15.527 4.59491 14.5091
568 1 1.89935 14.3276 5.01106 13.5939
556 2 -0.971524 12.9552 5.06595 14.4104
469 1 1.89982 11.5285 4.43357 14.7256
308 1 1.91454 16.2783 4.23579 15.9102
148 2 -0.915584 11.2551 4.98615 16.2399
147 1 1.92806 14.1147 3.5566 18.0884
181 1 1.89374 13.6024 7.57452 12.3861
54 2 -0.902701 13.9693 3.94509 12.3757
233 2 -0.949647 14.353 8.35884 11.2151
259 2 -0.966445 12.4707 6.69305 11.6328
244 1 1.86085 14.4404 3.37431 10.9392
519 2 -0.978693 11.5589 2.90144 14.3837
246 1 1.82374 11.6029 6.47148 16.7059
543 1 1.89257 15.8239 8.95053 11.1023
429 2 -0.974304 12.8927 3.11952 17.1537
47 1 1.78316 13.5451 7.95799 18.4637
548 2 -0.919772 12.6 9.29062 18.259
394 2 -0.981817 16.3351 9.20291 12.62
18 2 -0.904195 11.5965 9.80528 15.493
319 2 -0.833018 15.1067 8.41059 18.6068
164 1 1.84371 11.2463 6.41899 10.6228
483 2 -0.937335 10.5487 6.99256 17.8107
89 2 -0.937078 10.6057 9.92134 11.0251
520 2 -0.886417 16.7337 2.6984 15.6988
503 2 -0.922499 10.8154 4.86195 10.5388
177 2 -0.926097 10.3515 8.57077 13.3785
539 2 -0.899671 16.9161 8.07403 10.3452
15 2 -0.938296 22.3266 2.62226 15.3124
505 1 1.92399 18.6379 4.81111 12.1515
79 2 -0.912991 17.544 7.96775 16.57
292 2 -0.959978 21.4776 5.42453 14.403
64 1 1.81854 23.0392 7.71781 18.9069
142 2 -0.899957 23.3856 4.77024 16.1054
204 2 -0.963251 19.5502 6.57818 15.782
316 1 1.84748 23.3433 8.71574 16.0904
262 1 1.97025 21.4286 4.33214 10.9476
338 2 -1.11767 23.6773 8.85844 17.774
160 2 -0.948376 22.7839 7.26647 15.6549
96 2 -0.985112 18.1423 5.90512 11.0549
323 2 -0.953224 17.5616 3.59673 12.2968
313 2 -0.93795 18.9212 5.61033 13.5247
334 1 1.97819 20.6368 8.612 12.3852
229 2 -0.939376 22.5558 5.36406 11.4694
379 1 1.86185 18.1558 9.43318 16.2413
356 2 -0.952373 18.9867 6.51912 18.2249
440 2 -1.01425 20.5207 10.0436 12.9777
267 2 -0.959538 22.0574 2.87811 11.0813
81 2 -0.962224 20.603 7.68817 13.6662
74 1 1.95202 18.304 6.55613 16.7578
108 2 -0.917979 22.1771 9.77674 15.7544
279 2 -0.941687 18.0249 9.61027 14.5993
97 2 -0.92541 19.7019 9.4756 16.6377
37 1 1.93862 20.1472 6.28829 14.3729
538 2 -0.889104 21.6606 6.93087 18.5337
149 2 -0.968133 19.3527 8.19172 11.4484
346 2 -0.935452 17.4285 5.25634 16.2794
371 1 1.85673 22.9233 5.83643 14.9874
310 2 -1.03587 20.0753 4.25939 11.751
51 2 -1.02254 21.8787 8.41264 11.4456
349 2 -0.89893 17.8668 3.93081 18.9197
511 2 -0.901229 19.621 2.44696 17.6894
280 1 1.88951 18.3677 7.30571 10.4194
552 1 1.80657 23.695 3.20094 15.906
272 1 1.87178 17.188 10.2664 13.4356
424 1 1.75417 19.4133 3.31689 18.9951
72 2 -0.900987 15.3686 15.7746 6.29921
191 1 1.88314 14.2221 14.9312 5.60386
304 2 -0.941979 13.8801 13.5587 6.36381
67 2 -0.900539 12.8596 15.7909 5.62653
384 2 -0.920204 12.1855 12.3765 4.80887
533 1 1.89315 13.4217 12.136 5.82177
238 2 -0.947908 14.5553 14.4244 4.09694
12 1 1.77245 11.8137 16.3226 6.74531
58 2 -0.939822 12.534 17.237 7.84266
235 1 1.85181 14.1981 14.5129 2.54577
451 1 1.84578 16.2795 11.4175 5.2175
423 2 -0.922654 14.6666 11.4308 5.07583
412 2 -0.892991 16.1077 15.0451 8.79454
200 1 1.92451 11.4519 16.1252 2.35256
167 2 -0.881768 11.1195 14.9302 7.35442
327 1 1.75172 11.2183 11.7573 3.68618
372 1 1.88144 12.2536 17.4725 9.34784
387 2 -0.954409 16.1277 17.1251 3.12826
80 2 -0.932084 12.9288 15.5533 2.59398
441 2 -0.921083 12.1168 11.3394 2.31846
103 2 -0.95842 13.3974 11.5673 9.69821
303 2 -0.894218 13.1801 11.2009 7.15299
2 1 1.81468 16.6357 15.6738 7.37931
456 2 -0.890587 10.6354 17.2915 6.12209
532 1 1.81408 16.6711 13.8905 9.90238
426 1 1.83043 12.6352 10.7196 8.57047
403 2 -0.933653 10.6196 16.4057 3.69062
527 2 -0.899262 11.0194 11.0796 8.63901
157 2 -0.908322 16.7015 12.0865 6.64436
473 2 -0.907899 12.4027 16.0336 10.0776
561 1 1.90584 15.7679 16.7917 1.62277
400 2 -0.9301 15.3333 15.2371 1.6494
471 1 1.80496 10.3117 17.7116 4.56642
6 2 -0.939068 13.7875 13.2521 1.59616
482 2 -0.965393 10.7387 14.909 1.65076
188 2 -0.936241 16.9137 12.3946 4.04908
216 2 -0.912721 10.7161 18.0583 9.55936
477 2 -0.877138 10.5425 10.344 4.14685
169 2 -0.876555 18.3672 14.0033 2.35389
465 2 -0.902881 19.2443 12.4326 6.96517
282 1 1.89253 17.7989 13.0093 7.40994
390 1 1.87102 19.0575 17.9265 4.48079
495 2 -0.916719 17.5779 14.4722 6.82802
182 1 1.76255 20.4155 15.2827 4.45883
555 2 -0.932155 17.3555 17.0619 7.66671
275 2 -0.876394 19.2681 16.3275 4.75122
301 2 -0.990598 23.0047 14.6032 8.3841
485 2 -0.958939 20.6437 11.0341 5.39248
165 1 1.85373 22.7026 13.097 7.88147
122 2 -0.913681 20.602 15.2286 2.82738
192 1 1.78365 23.3684 16.454 5.20294
93 1 1.82519 19.7812 14.5235 1.64133
443 1 1.89868 20.483 12.5578 5.94331
203 2 -0.86628 21.6455 12.3053 8.83616
557 2 -0.890861 22.4478 11.9006 2.77507
271 1 1.90366 23.3275 16.1793 8.21909
77 2 -0.57546 19.9666 15.257 8.31027
132 2 -0.943253 17.6152 13.035 8.98527
490 2 -0.909218 20.0568 13.7502 4.89113
33 2 -0.931216 21.9392 16.9493 8.42315
461 1 1.85169 17.6254 12.5768 2.64535
92 1 1.72084 20.5175 16.59 9.0005
347 2 -0.964784 21.8824 13.0666 6.48609
69 2 -0.823995 19.6428 17.9175 8.61563
494 2 -0.88545 21.807 16.0869 5.08601
564 2 -0.88444 18.6972 11.3047 2.47753
525 1 1.80898 18.0165 18.0334 8.76538
385 2 -0.954057 17.7509 17.5828 10.2839
217 1 1.93916 13.947 14.6777 13.1759
184 2 -1.0034 14.4194 13.3516 13.9068
218 1 1.87825 13.6453 15.5859 16.0039
209 1 1.92503 14.6084 11.7872 13.7035
130 2 -0.902394 12.3408 16.3323 16.7523
125 2 -0.979276 15.2093 15.284 12.4664
143 2 -0.961793 12.6606 14.4928 12.2873
223 2 -0.937314 13.5582 15.6603 14.4095
339 2 -0.971522 15.0652 16.3155 16.3359
502 2 -0.930259 11.7664 16.9632 12.3192
537 2 -0.977525 13.5835 14.1164 16.5891
467 2 -0.982927 15.0371 12.0574 17.114
362 1 1.93729 13.7397 12.803 17.5337
20 1 1.77889 12.3121 11.2516 15.5414
52 2 -0.951143 13.6665 11.0473 14.7338
504 2 -1.20519 12.5621 11.7528 17.1783
128 1 1.85469 11.7763 15.5759 11.4933
240 2 -0.994125 14.1797 11.4367 12.169
286 2 -0.965473 11.2979 12.2618 14.8174
172 1 1.88069 10.8348 17.4539 13.5434
62 2 -0.955934 16.1627 11.3793 13.958
514 1 1.80032 16.5904 16.9363 16.4369
109 1 1.97497 16.6152 12.1133 17.3043
298 1 1.8676 11.9438 10.7331 18.3578
444 1 1.90896 11.777 17.7032 17.4196
127 1 1.91994 14.6463 11.6223 10.6697
258 2 -0.973777 10.3937 16.1768 14.414
458 2 -0.922216 16.9053 16.9078 18.0219
241 2 -0.996301 14.6523 17.8857 18.7382
452 1 1.81461 16.7994 15.205 12.6205
117 2 -0.928764 15.5101 17.9283 11.3055
25 2 -0.963467 16.6682 12.3664 18.8897
265 2 -0.922066 15.3899 13.054 10.4899
17 2 -0.930176 15.6625 10.4074 10.4154
31 2 -0.977606 11.5773 17.4717 18.9456
68 2 -0.985643 10.3657 10.7062 17.9776
194 2 -1.0011 23.4919 13.9915 13.35
534 1 1.89962 20.4565 16.8128 17.3147
353 1 1.80122 21.7343 17.1155 11.6273
174 1 1.90362 17.0829 17.9129 11.7246
213 2 -0.960798 21.6286 10.9664 17.9574
28 1 2.06845 20.5072 12.9976 14.9094
325 1 1.87142 21.8692 12.2905 18.7855
32 2 -0.884626 20.6472 16.4347 10.6185
78 2 -0.917586 20.3423 11.6966 11.0489
39 1 1.90829 20.9538 10.4642 16.5568
251 2 -1.03145 22.8576 15.8462 15.0086
276 2 -1.02651 20.3022 11.7135 15.7977
546 2 -0.887942 17.6623 15.9439 15.7958
1 1 1.93152 17.8195 14.3914 15.4105
567 2 -0.979928 21.9017 16.9249 18.0239
297 2 -0.946498 17.3509 10.7298 16.8322
85 2 -0.913942 19.6868 15.5135 17.8977
551 1 1.84142 23.3183 17.4922 18.5384
522 2 -0.957399 23.2506 16.5149 11.6123
270 2 -0.968108 23.0261 13.1735 18.0312
312 2 -0.903751 17.3941 16.6823 12.6885
383 2 -0.88284 20.5583 16.6795 15.7258
10 1 1.89988 21.7614 16.9432 14.7129
119 1 1.89193 21.8027 11.9388 10.4077
178 2 -0.936636 17.1873 14.3056 13.9232
102 1 2.00833 23.2816 14.3191 14.8925
283 2 -1.04894 20.2989 12.5886 13.4068
535 2 -0.951772 22.6638 13.089 11.083
510 2 -0.968449 19.3742 14.0422 15.3168
234 2 -0.995026 17.1144 13.3946 16.4779
395 2 -0.890112 21.2085 17.0791 13.1867
515 1 1.94583 19.8144 11.3973 12.5352
450 2 -0.864024 17.3732 14.5151 11.1902
565 2 -0.933961 18.2536 11.0735 12.4655
430 2 -0.953281 20.5656 13.188 18.6922
63 2 -1.01363 21.9948 13.4326 15.2046
566 2 -0.917787 22.6627 10.5814 10.452
ITEM: TIMESTEP
100
ITEM: NUMBER OF ATOMS
576
ITEM: BOX BOUNDS pp pp pp
-3.4828038255944254e+00 2.4068381537191755e+01
2.2758139850062928e+00 1.8309763726586404e+01
1.4011918407484796e+00 1.9184385870845695e+01
ITEM: ATOMS id type q x y z
366 2 -0.925643 0.428309 4.21335 5.34956
470 1 1.81804 2.45689 7.88154 5.82309
315 2 -0.898192 -0.873024 6.11034 4.43869
290 1 1.85202 -2.46347 5.80834 4.79631
474 2 -0.918459 2.01391 9.15833 4.88977
175 2 -0.953477 1.26706 6.79742 5.90272
377 2 -0.941799 0.18513 8.89888 2.96996
75 1 1.82774 0.629127 5.75003 4.87491
402 2 -0.953708 -1.40229 4.2011 8.32297
488 1 1.97468 -2.374 5.42178 7.94976
360 2 -0.985118 1.72892 5.7879 3.65575
220 2 -1.00064 1.32642 4.08475 8.47309
408 1 1.95188 2.61447 5.14241 2.50818
46 1 1.93271 -0.0919692 3.40404 8.86504
124 2 -0.951763 -2.48955 5.38189 6.34121
210 1 1.89862 -2.26413 8.25033 8.89672
38 1 1.84779 1.97074 8.78702 8.64873
314 2 -0.894116 2.795 8.36657 7.32933
419 2 -0.987887 -1.75426 6.82252 8.41223
306 2 -0.96049 -1.87524 9.33861 7.81652
401 2 -0.960884 1.66269 7.5215 9.63715
118 1 1.80303 0.622766 9.6945 4.30442
201 1 1.89441 2.89526 4.04724 8.29434
364 2 -0.943365 0.701552 9.50681 7.95437
231 2 -0.918561 -0.452998 9.49864 5.51716
60 2 -0.898124 -0.412895 2.91363 3.10173
352 1 1.77678 0.320353 2.78362 4.56218
168 2 -0.905542 2.85409 9.80919 9.5741
536 2 -0.918146 -2.94765 4.57595 3.87625
123 2 -0.943904 1.54737 4.19911 1.75596
380 1 1.9226 -0.581639 9.96037 7.08471
300 1 1.8792 0.11913 3.483 1.64125
432 2 -0.909136 -0.509567 7.01894 1.50847
484 2 -0.97558 3.36777 3.10247 7.02677
249 2 -1.01144 1.78599 2.38249 4.10316
40 2 -0.992917 3.48535 3.3779 9.61022
199 1 1.79973 0.0254491 8.54939 1.42655
50 2 -0.957622 3.00937 6.22607 1.39091
404 2 -0.880166 -3.32991 7.23028 4.7785
392 2 -0.878461 -1.4677 8.55582 10.2953
550 1 1.9558 6.92255 4.01778 9.73863
311 2 -0.928436 9.36552 8.26691 5.04993
173 1 1.98916 5.60762 4.64391 3.43224
228 1 2.05514 5.01664 9.76278 2.09955
464 2 -0.931332 8.73578 6.14518 2.00535
553 2 -0.932107 5.69161 6.68689 6.83191
289 1 1.85782 9.70759 8.88025 3.58171
186 2 -0.940479 8.81355 2.32974 4.34332
57 1 1.91992 9.64198 8.01383 6.59065
558 2 -0.971071 8.49679 3.97573 9.94642
131 2 -0.924562 8.06346 4.17027 6.19865
498 1 1.93942 5.3591 7.0556 5.28533
111 1 1.86139 7.80784 9.63423 8.64089
324 2 -1.05874 3.7524 8.79896 2.03659
381 1 1.88962 10.0444 3.79031 9.51438
422 2 -0.99153 6.37328 5.00377 8.60833
273 1 1.9728 9.39862 4.94355 6.68082
476 2 -0.941809 3.73141 5.42262 8.10192
411 2 -0.941459 3.77046 7.2761 5.11793
180 2 -0.897988 5.91933 8.55992 5.02626
107 2 -0.934532 9.14176 6.54675 6.99096
278 2 -0.932016 5.15147 7.17114 9.37435
239 2 -0.960388 4.03675 4.56051 3.02832
227 1 1.78268 7.56075 2.88573 5.27597
493 2 -0.874715 6.2902 3.49379 4.39494
256 2 -1.02312 5.80099 5.99119 4.2034
373 2 -0.957021 6.50542 4.55214 2.15849
35 2 -0.985107 8.56756 9.04998 2.41774
236 1 1.92597 5.24002 6.01798 8.23229
501 2 -0.927533 8.80036 9.06353 7.49405
420 2 -0.909162 7.28653 8.45185 9.63289
163 1 1.74489 5.93629 10.2 4.90302
27 2 -0.889749 6.32939 2.5073 9.61434
13 2 -0.988937 9.94233 4.23452 7.97172
529 2 -1.02055 6.24408 9.07128 1.42579
187 2 -0.913924 -3.01299 6.45959 1.5623
497 1 1.80397 10.2652 6.59951 1.74986
269 2 -0.945635 -0.775323 7.00631 14.7915
95 2 -1.03957 1.2155 5.9937 16.1839
287 2 -0.959707 -0.667041 4.50478 15.4644
345 1 1.8935 1.77052 7.29709 11.2141
83 1 1.98934 -0.352967 6.00859 15.9557
101 1 1.85238 -1.22471 7.71225 11.6801
288 2 -1.01738 -1.39505 6.24777 17.1308
195 2 -0.981391 0.319333 7.30958 11.7791
230 2 -0.968489 2.61547 5.98685 11.6829
397 1 2.07535 2.57906 5.38288 15.6634
285 2 -0.85545 -1.55807 8.64249 12.99
321 2 -0.994574 -2.36702 4.00191 11.8955
152 2 -1.00241 2.44035 5.11239 14.1333
563 2 -0.924303 2.67556 8.49832 11.8497
569 1 1.7662 -1.09377 8.55818 14.5602
328 2 -0.949797 -2.28354 6.4769 11.5874
41 2 -0.806871 -2.46785 9.06866 15.3884
264 1 1.96943 -1.11607 2.97235 11.7614
524 1 1.83911 -1.56795 5.98159 18.6861
281 1 1.88659 -0.696753 3.05697 14.7478
369 2 -0.913811 0.220173 9.4054 15.0155
98 2 -0.900833 -0.982685 9.4653 18.3331
409 2 -0.858201 3.02365 4.01906 16.4391
322 2 -0.924497 -0.327368 3.1251 13.1579
521 2 -0.94547 -0.247385 3.34271 10.4663
100 1 1.93322 -3.17794 5.31035 12.2332
516 1 1.99752 3.24202 4.95606 12.7265
151 2 -0.904645 1.52749 8.34073 18.5604
375 2 -0.952117 -1.05173 4.48109 19.011
145 1 1.94765 3.0314 7.82085 18.8791
455 2 -0.955106 -2.22474 2.63299 14.93
463 2 -0.968033 2.97293 3.52518 12.1344
415 1 1.82939 5.34932 10.1483 14.6831
309 1 1.92554 3.28802 2.50722 10.947
202 2 -0.97781 0.394952 2.35284 18.3222
396 2 -0.96531 -3.29384 5.7179 13.7968
343 1 1.35117 8.82482 2.40491 17.8663
552 1 1.93897 -3.43232 2.88314 15.9542
359 2 -0.907541 7.10317 5.89169 17.7067
399 1 1.76677 8.73899 5.36995 14.3078
486 2 -0.94524 5.04501 9.27471 11.0103
248 2 -0.951166 6.14612 7.46207 16.0499
329 2 -0.822462 4.55361 2.34396 18.0201
139 2 -0.992737 4.80692 5.2408 12.9784
318 1 2.03835 6.24579 5.59614 12.3437
183 1 1.88601 7.56691 7.04007 16.671
243 2 -1.01367 8.10094 8.22562 17.6108
512 2 -1.00912 3.83205 6.26387 15.8042
245 1 1.80733 9.82012 8.68595 11.7536
545 2 -0.781564 8.72928 4.06834 18.3521
447 2 -0.976401 7.56979 5.41116 13.1821
291 1 1.618 4.21624 2.88966 16.4621
206 2 -0.773611 5.6602 3.63086 15.9224
215 2 -0.900114 8.2882 4.18161 15.2901
559 1 1.86622 5.94061 8.05944 10.4886
266 2 -0.842158 8.54358 6.64814 15.3888
30 1 1.44824 7.11991 3.08333 15.4766
21 1 1.75647 7.71473 5.14679 19.0158
24 2 -0.917707 8.34191 9.36493 12.0377
133 2 -0.885971 4.34535 8.87743 15.0037
388 1 1.92941 4.57248 7.63299 16.0916
8 2 -0.976002 10.1112 7.31914 11.0094
88 2 -0.991432 6.31394 4.5595 11.1205
44 2 -0.952017 6.75072 9.94678 13.96
367 2 -1.00078 6.23023 7.01174 11.6735
406 1 1.8022 3.47596 9.69144 11.0332
254 1 2.01656 7.78957 9.15979 18.8052
457 2 -0.94219 3.90574 8.01128 17.5292
121 2 -0.872558 7.0013 2.31469 14.066
391 2 -0.895598 1.71934 13.4273 8.38777
274 2 -0.908364 0.234628 15.5603 7.48599
156 1 1.97659 1.68291 12.1468 2.78127
575 2 -0.962623 -0.629447 14.5331 4.31378
299 1 1.89517 0.455406 17.1129 7.094
554 2 -1.06149 2.04243 17.0792 7.05712
3 1 1.99211 -1.76822 12.8256 7.47999
250 2 -0.880002 -0.879952 13.609 8.5558
29 1 1.93208 -2.14244 14.0841 4.71415
53 2 -0.962992 1.66966 15.8703 3.72557
307 1 2.03736 0.414839 14.9337 3.20334
140 2 -1.04044 -1.97181 13.6808 6.2163
144 2 -0.929214 0.808514 11.2521 3.81212
386 2 -0.942292 -0.885275 11.5295 7.14575
190 1 1.82591 0.510189 14.5005 8.63866
350 2 -1.01091 1.11722 13.6509 2.70807
208 1 1.93845 2.64545 17.1659 3.77328
211 2 -0.946749 2.94867 12.7608 6.14465
94 2 -1.00359 -0.459486 15.6831 2.11296
70 2 -0.971514 3.10049 12.077 3.48283
442 1 1.94113 3.15577 13.154 7.6827
189 2 -0.922536 -0.129532 17.7297 5.68297
221 2 -0.928404 -2.64971 12.7658 3.94443
224 2 -0.92179 -2.38441 10.8227 2.17924
86 2 -0.927363 -3.13876 15.3328 4.27495
116 2 -0.951808 -2.87924 16.5633 9.3031
196 2 -0.969755 -3.32211 12.5015 7.92372
212 2 -0.959577 -0.104926 17.9348 8.32335
481 2 -0.876563 0.671097 15.2715 10.0879
76 2 -0.924347 -3.44038 16.5973 6.61096
344 1 1.78046 -3.40632 11.4728 3.29037
448 2 -0.887981 3.42772 17.3477 2.38315
11 1 1.77781 9.44809 14.472 7.2316
517 2 -0.937959 6.40251 10.3658 8.22027
106 2 -0.97209 3.54897 17.1733 5.11014