ITEM: TIMESTEP
0
ITEM: NUMBER OF ATOMS
680
ITEM: BOX BOUNDS ff ff ff
-3.5000000000000000e+01 3.5000000000000000e+01
-3.5000000000000000e+01 3.5000000000000000e+01
-1.5000000000000000e+01 1.5000000000000000e+01
ITEM: ATOMS id type xs ys zs
1 1 0.22808 0.206271 0.5
2 1 0.210537 0.2164 0.5
3 1 0.210537 0.236657 0.5
4 1 0.22808 0.246786 0.5
6 1 0.245624 0.2164 0.5
7 1 0.245624 0.236657 0.5
5 1 0.263167 0.206271 0.5
8 1 0.263167 0.246786 0.5
9 1 0.298253 0.206271 0.5
10 1 0.28071 0.2164 0.5
11 1 0.28071 0.236657 0.5
12 1 0.298253 0.246786 0.5
13 1 0.33334 0.206271 0.5
14 1 0.315796 0.2164 0.5
15 1 0.315796 0.236657 0.5
16 1 0.33334 0.246786 0.5
17 1 0.368426 0.206271 0.5
18 1 0.350883 0.2164 0.5
19 1 0.350883 0.236657 0.5
20 1 0.368426 0.246786 0.5
21 1 0.403512 0.206271 0.5
22 1 0.385969 0.2164 0.5
23 1 0.385969 0.236657 0.5
24 1 0.403512 0.246786 0.5
25 1 0.438599 0.206271 0.5
26 1 0.421056 0.2164 0.5
27 1 0.421056 0.236657 0.5
28 1 0.438599 0.246786 0.5
29 1 0.473685 0.206271 0.5
30 1 0.456142 0.2164 0.5
31 1 0.456142 0.236657 0.5
32 1 0.473685 0.246786 0.5
34 1 0.491228 0.2164 0.5
35 1 0.491228 0.236657 0.5
33 1 0.508772 0.206271 0.5
36 1 0.508772 0.246786 0.5
37 1 0.543858 0.206271 0.5
38 1 0.526315 0.2164 0.5
39 1 0.526315 0.236657 0.5
40 1 0.543858 0.246786 0.5
41 1 0.578944 0.206271 0.5
42 1 0.561401 0.2164 0.5
43 1 0.561401 0.236657 0.5
44 1 0.578944 0.246786 0.5
45 1 0.614031 0.206271 0.5
46 1 0.596488 0.2164 0.5
47 1 0.596488 0.236657 0.5
48 1 0.614031 0.246786 0.5
49 1 0.649117 0.206271 0.5
50 1 0.631574 0.2164 0.5
51 1 0.631574 0.236657 0.5
52 1 0.649117 0.246786 0.5
53 1 0.684204 0.206271 0.5
54 1 0.66666 0.2164 0.5
55 1 0.66666 0.236657 0.5
56 1 0.684204 0.246786 0.5
57 1 0.71929 0.206271 0.5
58 1 0.701747 0.2164 0.5
59 1 0.701747 0.236657 0.5
60 1 0.71929 0.246786 0.5
62 1 0.736833 0.2164 0.5
63 1 0.736833 0.236657 0.5
61 1 0.754376 0.206271 0.5
64 1 0.754376 0.246786 0.5
65 1 0.789463 0.206271 0.5
66 1 0.77192 0.2164 0.5
67 1 0.77192 0.236657 0.5
68 1 0.789463 0.246786 0.5
69 1 0.22808 0.267043 0.5
70 1 0.210537 0.277171 0.5
71 1 0.210537 0.297429 0.5
72 1 0.22808 0.307557 0.5
74 1 0.245624 0.277171 0.5
75 1 0.245624 0.297429 0.5
137 1 0.22808 0.327814 0.5
138 1 0.210537 0.337943 0.5
139 1 0.210537 0.3582 0.5
140 1 0.22808 0.368329 0.5
142 1 0.245624 0.337943 0.5
143 1 0.245624 0.3582 0.5
73 1 0.263167 0.267043 0.5
76 1 0.263167 0.307557 0.5
77 1 0.298253 0.267043 0.5
78 1 0.28071 0.277171 0.5
79 1 0.28071 0.297429 0.5
80 1 0.298253 0.307557 0.5
81 1 0.33334 0.267043 0.5
82 1 0.315796 0.277171 0.5
83 1 0.315796 0.297429 0.5
84 1 0.33334 0.307557 0.5
85 1 0.368426 0.267043 0.5
86 1 0.350883 0.277171 0.5
87 1 0.350883 0.297429 0.5
88 1 0.368426 0.307557 0.5
141 1 0.263167 0.327814 0.5
144 1 0.263167 0.368329 0.5
145 1 0.298253 0.327814 0.5
146 1 0.28071 0.337943 0.5
147 1 0.28071 0.3582 0.5
148 1 0.298253 0.368329 0.5
149 1 0.33334 0.327814 0.5
150 1 0.315796 0.337943 0.5
151 1 0.315796 0.3582 0.5
152 1 0.33334 0.368329 0.5
153 1 0.368426 0.327814 0.5
154 1 0.350883 0.337943 0.5
155 1 0.350883 0.3582 0.5
156 1 0.368426 0.368329 0.5
89 1 0.403512 0.267043 0.5
90 1 0.385969 0.277171 0.5
91 1 0.385969 0.297429 0.5
92 1 0.403512 0.307557 0.5
93 1 0.438599 0.267043 0.5
94 1 0.421056 0.277171 0.5
95 1 0.421056 0.297429 0.5
96 1 0.438599 0.307557 0.5
97 1 0.473685 0.267043 0.5
98 1 0.456142 0.277171 0.5
99 1 0.456142 0.297429 0.5
100 1 0.473685 0.307557 0.5
102 1 0.491228 0.277171 0.5
103 1 0.491228 0.297429 0.5
157 1 0.403512 0.327814 0.5
158 1 0.385969 0.337943 0.5
159 1 0.385969 0.3582 0.5
160 1 0.403512 0.368329 0.5
161 1 0.438599 0.327814 0.5
162 1 0.421056 0.337943 0.5
163 1 0.421056 0.3582 0.5
164 1 0.438599 0.368329 0.5
165 1 0.473685 0.327814 0.5
166 1 0.456142 0.337943 0.5
167 1 0.456142 0.3582 0.5
168 1 0.473685 0.368329 0.5
170 1 0.491228 0.337943 0.5
171 1 0.491228 0.3582 0.5
101 1 0.508772 0.267043 0.5
104 1 0.508772 0.307557 0.5
105 1 0.543858 0.267043 0.5
106 1 0.526315 0.277171 0.5
107 1 0.526315 0.297429 0.5
108 1 0.543858 0.307557 0.5
109 1 0.578944 0.267043 0.5
110 1 0.561401 0.277171 0.5
111 1 0.561401 0.297429 0.5
112 1 0.578944 0.307557 0.5
113 1 0.614031 0.267043 0.5
114 1 0.596488 0.277171 0.5
115 1 0.596488 0.297429 0.5
116 1 0.614031 0.307557 0.5
169 1 0.508772 0.327814 0.5
172 1 0.508772 0.368329 0.5
173 1 0.543858 0.327814 0.5
174 1 0.526315 0.337943 0.5
175 1 0.526315 0.3582 0.5
176 1 0.543858 0.368329 0.5
177 1 0.578944 0.327814 0.5
178 1 0.561401 0.337943 0.5
179 1 0.561401 0.3582 0.5
180 1 0.578944 0.368329 0.5
181 1 0.614031 0.327814 0.5
182 1 0.596488 0.337943 0.5
183 1 0.596488 0.3582 0.5
184 1 0.614031 0.368329 0.5
117 1 0.649117 0.267043 0.5
118 1 0.631574 0.277171 0.5
119 1 0.631574 0.297429 0.5
120 1 0.649117 0.307557 0.5
121 1 0.684204 0.267043 0.5
122 1 0.66666 0.277171 0.5
123 1 0.66666 0.297429 0.5
124 1 0.684204 0.307557 0.5
125 1 0.71929 0.267043 0.5
126 1 0.701747 0.277171 0.5
127 1 0.701747 0.297429 0.5
128 1 0.71929 0.307557 0.5
130 1 0.736833 0.277171 0.5
131 1 0.736833 0.297429 0.5
185 1 0.649117 0.327814 0.5
186 1 0.631574 0.337943 0.5
187 1 0.631574 0.3582 0.5
188 1 0.649117 0.368329 0.5
189 1 0.684204 0.327814 0.5
190 1 0.66666 0.337943 0.5
191 1 0.66666 0.3582 0.5
192 1 0.684204 0.368329 0.5
193 1 0.71929 0.327814 0.5
194 1 0.701747 0.337943 0.5
195 1 0.701747 0.3582 0.5
196 1 0.71929 0.368329 0.5
198 1 0.736833 0.337943 0.5
199 1 0.736833 0.3582 0.5
129 1 0.754376 0.267043 0.5
132 1 0.754376 0.307557 0.5
133 1 0.789463 0.267043 0.5
134 1 0.77192 0.277171 0.5
135 1 0.77192 0.297429 0.5
136 1 0.789463 0.307557 0.5
197 1 0.754376 0.327814 0.5
200 1 0.754376 0.368329 0.5
201 1 0.789463 0.327814 0.5
202 1 0.77192 0.337943 0.5
203 1 0.77192 0.3582 0.5
204 1 0.789463 0.368329 0.5
205 1 0.22808 0.388586 0.5
206 1 0.210537 0.398714 0.5
207 1 0.210537 0.418971 0.5
208 1 0.22808 0.4291 0.5
210 1 0.245624 0.398714 0.5
211 1 0.245624 0.418971 0.5
273 1 0.22808 0.449357 0.5
274 1 0.210537 0.459486 0.5
275 1 0.210537 0.479743 0.5
276 1 0.22808 0.489871 0.5
278 1 0.245624 0.459486 0.5
279 1 0.245624 0.479743 0.5
209 1 0.263167 0.388586 0.5
212 1 0.263167 0.4291 0.5
213 1 0.298253 0.388586 0.5
214 1 0.28071 0.398714 0.5
215 1 0.28071 0.418971 0.5
216 1 0.298253 0.4291 0.5
217 1 0.33334 0.388586 0.5
218 1 0.315796 0.398714 0.5
219 1 0.315796 0.418971 0.5
220 1 0.33334 0.4291 0.5
221 1 0.368426 0.388586 0.5
222 1 0.350883 0.398714 0.5
223 1 0.350883 0.418971 0.5
224 1 0.368426 0.4291 0.5
277 1 0.263167 0.449357 0.5
280 1 0.263167 0.489871 0.5
281 1 0.298253 0.449357 0.5
282 1 0.28071 0.459486 0.5
283 1 0.28071 0.479743 0.5
284 1 0.298253 0.489871 0.5
285 1 0.33334 0.449357 0.5
286 1 0.315796 0.459486 0.5
287 1 0.315796 0.479743 0.5
288 1 0.33334 0.489871 0.5
289 1 0.368426 0.449357 0.5
290 1 0.350883 0.459486 0.5
291 1 0.350883 0.479743 0.5
292 1 0.368426 0.489871 0.5
225 1 0.403512 0.388586 0.5
226 1 0.385969 0.398714 0.5
227 1 0.385969 0.418971 0.5
228 1 0.403512 0.4291 0.5
229 1 0.438599 0.388586 0.5
230 1 0.421056 0.398714 0.5
231 1 0.421056 0.418971 0.5
232 1 0.438599 0.4291 0.5
233 1 0.473685 0.388586 0.5
234 1 0.456142 0.398714 0.5
235 1 0.456142 0.418971 0.5
236 1 0.473685 0.4291 0.5
238 1 0.491228 0.398714 0.5
239 1 0.491228 0.418971 0.5
293 1 0.403512 0.449357 0.5
294 1 0.385969 0.459486 0.5
295 1 0.385969 0.479743 0.5
296 1 0.403512 0.489871 0.5
297 1 0.438599 0.449357 0.5
298 1 0.421056 0.459486 0.5
299 1 0.421056 0.479743 0.5
300 1 0.438599 0.489871 0.5
301 1 0.473685 0.449357 0.5
302 1 0.456142 0.459486 0.5
303 1 0.456142 0.479743 0.5
304 1 0.473685 0.489871 0.5
306 1 0.491228 0.459486 0.5
307 1 0.491228 0.479743 0.5
237 1 0.508772 0.388586 0.5
240 1 0.508772 0.4291 0.5
241 1 0.543858 0.388586 0.5
242 1 0.526315 0.398714 0.5
243 1 0.526315 0.418971 0.5
244 1 0.543858 0.4291 0.5
245 1 0.578944 0.388586 0.5
246 1 0.561401 0.398714 0.5
247 1 0.561401 0.418971 0.5
248 1 0.578944 0.4291 0.5
249 1 0.614031 0.388586 0.5
250 1 0.596488 0.398714 0.5
251 1 0.596488 0.418971 0.5
252 1 0.614031 0.4291 0.5
305 1 0.508772 0.449357 0.5
308 1 0.508772 0.489871 0.5
309 1 0.543858 0.449357 0.5
310 1 0.526315 0.459486 0.5
311 1 0.526315 0.479743 0.5
312 1 0.543858 0.489871 0.5
313 1 0.578944 0.449357 0.5
314 1 0.561401 0.459486 0.5
315 1 0.561401 0.479743 0.5
316 1 0.578944 0.489871 0.5
317 1 0.614031 0.449357 0.5
318 1 0.596488 0.459486 0.5
319 1 0.596488 0.479743 0.5
320 1 0.614031 0.489871 0.5
253 1 0.649117 0.388586 0.5
254 1 0.631574 0.398714 0.5
255 1 0.631574 0.418971 0.5
256 1 0.649117 0.4291 0.5
257 1 0.684204 0.388586 0.5
258 1 0.66666 0.398714 0.5
259 1 0.66666 0.418971 0.5
260 1 0.684204 0.4291 0.5
261 1 0.71929 0.388586 0.5
262 1 0.701747 0.398714 0.5
263 1 0.701747 0.418971 0.5
264 1 0.71929 0.4291 0.5
266 1 0.736833 0.398714 0.5
267 1 0.736833 0.418971 0.5
321 1 0.649117 0.449357 0.5
322 1 0.631574 0.459486 0.5
323 1 0.631574 0.479743 0.5
324 1 0.649117 0.489871 0.5
325 1 0.684204 0.449357 0.5
326 1 0.66666 0.459486 0.5
327 1 0.66666 0.479743 0.5
328 1 0.684204 0.489871 0.5
329 1 0.71929 0.449357 0.5
330 1 0.701747 0.459486 0.5
331 1 0.701747 0.479743 0.5
332 1 0.71929 0.489871 0.5
334 1 0.736833 0.459486 0.5
335 1 0.736833 0.479743 0.5
265 1 0.754376 0.388586 0.5
268 1 0.754376 0.4291 0.5
269 1 0.789463 0.388586 0.5
270 1 0.77192 0.398714 0.5
271 1 0.77192 0.418971 0.5
272 1 0.789463 0.4291 0.5
333 1 0.754376 0.449357 0.5
336 1 0.754376 0.489871 0.5
337 1 0.789463 0.449357 0.5
338 1 0.77192 0.459486 0.5
339 1 0.77192 0.479743 0.5
340 1 0.789463 0.489871 0.5
341 1 0.22808 0.510129 0.5
342 1 0.210537 0.520257 0.5
343 1 0.210537 0.540514 0.5
344 1 0.22808 0.550643 0.5
346 1 0.245624 0.520257 0.5
347 1 0.245624 0.540514 0.5
409 1 0.22808 0.5709 0.5
410 1 0.210537 0.581029 0.5
411 1 0.210537 0.601286 0.5
412 1 0.22808 0.611414 0.5
414 1 0.245624 0.581029 0.5
415 1 0.245624 0.601286 0.5
345 1 0.263167 0.510129 0.5
348 1 0.263167 0.550643 0.5
349 1 0.298253 0.510129 0.5
350 1 0.28071 0.520257 0.5
351 1 0.28071 0.540514 0.5
352 1 0.298253 0.550643 0.5
353 1 0.33334 0.510129 0.5
354 1 0.315796 0.520257 0.5
355 1 0.315796 0.540514 0.5
356 1 0.33334 0.550643 0.5
357 1 0.368426 0.510129 0.5
358 1 0.350883 0.520257 0.5
359 1 0.350883 0.540514 0.5
360 1 0.368426 0.550643 0.5
413 1 0.263167 0.5709 0.5
416 1 0.263167 0.611414 0.5
417 1 0.298253 0.5709 0.5
418 1 0.28071 0.581029 0.5
419 1 0.28071 0.601286 0.5
420 1 0.298253 0.611414 0.5
421 1 0.33334 0.5709 0.5
422 1 0.315796 0.581029 0.5
423 1 0.315796 0.601286 0.5
424 1 0.33334 0.611414 0.5
425 1 0.368426 0.5709 0.5
426 1 0.350883 0.581029 0.5
427 1 0.350883 0.601286 0.5
428 1 0.368426 0.611414 0.5
361 1 0.403512 0.510129 0.5
362 1 0.385969 0.520257 0.5
363 1 0.385969 0.540514 0.5
364 1 0.403512 0.550643 0.5
365 1 0.438599 0.510129 0.5
366 1 0.421056 0.520257 0.5
367 1 0.421056 0.540514 0.5
368 1 0.438599 0.550643 0.5
369 1 0.473685 0.510129 0.5
370 1 0.456142 0.520257 0.5
371 1 0.456142 0.540514 0.5
372 1 0.473685 0.550643 0.5
374 1 0.491228 0.520257 0.5
375 1 0.491228 0.540514 0.5
429 1 0.403512 0.5709 0.5
430 1 0.385969 0.581029 0.5
431 1 0.385969 0.601286 0.5
432 1 0.403512 0.611414 0.5
433 1 0.438599 0.5709 0.5
434 1 0.421056 0.581029 0.5
435 1 0.421056 0.601286 0.5
436 1 0.438599 0.611414 0.5
437 1 0.473685 0.5709 0.5
438 1 0.456142 0.581029 0.5
439 1 0.456142 0.601286 0.5
440 1 0.473685 0.611414 0.5
442 1 0.491228 0.581029 0.5
443 1 0.491228 0.601286 0.5
373 1 0.508772 0.510129 0.5
376 1 0.508772 0.550643 0.5
377 1 0.543858 0.510129 0.5
378 1 0.526315 0.520257 0.5
379 1 0.526315 0.540514 0.5
380 1 0.543858 0.550643 0.5
381 1 0.578944 0.510129 0.5
382 1 0.561401 0.520257 0.5
383 1 0.561401 0.540514 0.5
384 1 0.578944 0.550643 0.5
385 1 0.614031 0.510129 0.5
386 1 0.596488 0.520257 0.5
387 1 0.596488 0.540514 0.5
388 1 0.614031 0.550643 0.5
441 1 0.508772 0.5709 0.5
444 1 0.508772 0.611414 0.5
445 1 0.543858 0.5709 0.5
446 1 0.526315 0.581029 0.5
447 1 0.526315 0.601286 0.5
448 1 0.543858 0.611414 0.5
449 1 0.578944 0.5709 0.5
450 1 0.561401 0.581029 0.5
451 1 0.561401 0.601286 0.5
452 1 0.578944 0.611414 0.5
453 1 0.614031 0.5709 0.5
454 1 0.596488 0.581029 0.5
455 1 0.596488 0.601286 0.5
456 1 0.614031 0.611414 0.5
389 1 0.649117 0.510129 0.5
390 1 0.631574 0.520257 0.5
391 1 0.631574 0.540514 0.5
392 1 0.649117 0.550643 0.5
393 1 0.684204 0.510129 0.5
394 1 0.66666 0.520257 0.5
395 1 0.66666 0.540514 0.5
396 1 0.684204 0.550643 0.5
397 1 0.71929 0.510129 0.5
398 1 0.701747 0.520257 0.5
399 1 0.701747 0.540514 0.5
400 1 0.71929 0.550643 0.5
402 1 0.736833 0.520257 0.5
403 1 0.736833 0.540514 0.5
457 1 0.649117 0.5709 0.5
458 1 0.631574 0.581029 0.5
459 1 0.631574 0.601286 0.5
460 1 0.649117 0.611414 0.5
461 1 0.684204 0.5709 0.5
462 1 0.66666 0.581029 0.5
463 1 0.66666 0.601286 0.5
464 1 0.684204 0.611414 0.5
465 1 0.71929 0.5709 0.5
466 1 0.701747 0.581029 0.5
467 1 0.701747 0.601286 0.5
468 1 0.71929 0.611414 0.5
470 1 0.736833 0.581029 0.5
471 1 0.736833 0.601286 0.5
401 1 0.754376 0.510129 0.5
404 1 0.754376 0.550643 0.5
405 1 0.789463 0.510129 0.5
406 1 0.77192 0.520257 0.5
407 1 0.77192 0.540514 0.5
408 1 0.789463 0.550643 0.5
469 1 0.754376 0.5709 0.5
472 1 0.754376 0.611414 0.5
473 1 0.789463 0.5709 0.5
474 1 0.77192 0.581029 0.5
475 1 0.77192 0.601286 0.5
476 1 0.789463 0.611414 0.5
477 1 0.22808 0.631671 0.5
478 1 0.210537 0.6418 0.5
479 1 0.210537 0.662057 0.5
480 1 0.22808 0.672186 0.5
482 1 0.245624 0.6418 0.5
483 1 0.245624 0.662057 0.5
545 1 0.22808 0.692443 0.5
546 1 0.210537 0.702571 0.5
547 1 0.210537 0.722829 0.5
548 1 0.22808 0.732957 0.5
550 1 0.245624 0.702571 0.5
551 1 0.245624 0.722829 0.5
481 1 0.263167 0.631671 0.5
484 1 0.263167 0.672186 0.5
485 1 0.298253 0.631671 0.5
486 1 0.28071 0.6418 0.5
487 1 0.28071 0.662057 0.5
488 1 0.298253 0.672186 0.5
489 1 0.33334 0.631671 0.5
490 1 0.315796 0.6418 0.5
491 1 0.315796 0.662057 0.5
492 1 0.33334 0.672186 0.5
493 1 0.368426 0.631671 0.5
494 1 0.350883 0.6418 0.5
495 1 0.350883 0.662057 0.5
496 1 0.368426 0.672186 0.5
549 1 0.263167 0.692443 0.5
552 1 0.263167 0.732957 0.5
553 1 0.298253 0.692443 0.5
554 1 0.28071 0.702571 0.5
555 1 0.28071 0.722829 0.5
556 1 0.298253 0.732957 0.5
557 1 0.33334 0.692443 0.5
558 1 0.315796 0.702571 0.5
559 1 0.315796 0.722829 0.5
560 1 0.33334 0.732957 0.5
561 1 0.368426 0.692443 0.5
562 1 0.350883 0.702571 0.5
563 1 0.350883 0.722829 0.5
564 1 0.368426 0.732957 0.5
497 1 0.403512 0.631671 0.5
498 1 0.385969 0.6418 0.5
499 1 0.385969 0.662057 0.5
500 1 0.403512 0.672186 0.5
501 1 0.438599 0.631671 0.5
502 1 0.421056 0.6418 0.5
503 1 0.421056 0.662057 0.5
504 1 0.438599 0.672186 0.5
505 1 0.473685 0.631671 0.5
506 1 0.456142 0.6418 0.5
507 1 0.456142 0.662057 0.5
508 1 0.473685 0.672186 0.5
510 1 0.491228 0.6418 0.5
511 1 0.491228 0.662057 0.5
565 1 0.403512 0.692443 0.5
566 1 0.385969 0.702571 0.5
567 1 0.385969 0.722829 0.5
568 1 0.403512 0.732957 0.5
569 1 0.438599 0.692443 0.5
570 1 0.421056 0.702571 0.5
571 1 0.421056 0.722829 0.5
572 1 0.438599 0.732957 0.5
573 1 0.473685 0.692443 0.5
574 1 0.456142 0.702571 0.5
575 1 0.456142 0.722829 0.5
576 1 0.473685 0.732957 0.5
578 1 0.491228 0.702571 0.5
579 1 0.491228 0.722829 0.5
509 1 0.508772 0.631671 0.5
512 1 0.508772 0.672186 0.5
513 1 0.543858 0.631671 0.5
514 1 0.526315 0.6418 0.5
515 1 0.526315 0.662057 0.5
516 1 0.543858 0.672186 0.5
517 1 0.578944 0.631671 0.5
518 1 0.561401 0.6418 0.5
519 1 0.561401 0.662057 0.5
520 1 0.578944 0.672186 0.5
521 1 0.614031 0.631671 0.5
522 1 0.596488 0.6418 0.5
523 1 0.596488 0.662057 0.5
524 1 0.614031 0.672186 0.5
577 1 0.508772 0.692443 0.5
580 1 0.508772 0.732957 0.5
581 1 0.543858 0.692443 0.5
582 1 0.526315 0.702571 0.5
583 1 0.526315 0.722829 0.5
584 1 0.543858 0.732957 0.5
585 1 0.578944 0.692443 0.5
586 1 0.561401 0.702571 0.5
587 1 0.561401 0.722829 0.5
588 1 0.578944 0.732957 0.5
589 1 0.614031 0.692443 0.5
590 1 0.596488 0.702571 0.5
591 1 0.596488 0.722829 0.5
592 1 0.614031 0.732957 0.5
525 1 0.649117 0.631671 0.5
526 1 0.631574 0.6418 0.5
527 1 0.631574 0.662057 0.5
528 1 0.649117 0.672186 0.5
529 1 0.684204 0.631671 0.5
530 1 0.66666 0.6418 0.5
531 1 0.66666 0.662057 0.5
532 1 0.684204 0.672186 0.5
533 1 0.71929 0.631671 0.5
534 1 0.701747 0.6418 0.5
535 1 0.701747 0.662057 0.5
536 1 0.71929 0.672186 0.5
538 1 0.736833 0.6418 0.5
539 1 0.736833 0.662057 0.5
593 1 0.649117 0.692443 0.5
594 1 0.631574 0.702571 0.5
595 1 0.631574 0.722829 0.5
596 1 0.649117 0.732957 0.5
597 1 0.684204 0.692443 0.5
598 1 0.66666 0.702571 0.5
599 1 0.66666 0.722829 0.5
600 1 0.684204 0.732957 0.5
601 1 0.71929 0.692443 0.5
602 1 0.701747 0.702571 0.5
603 1 0.701747 0.722829 0.5
604 1 0.71929 0.732957 0.5
606 1 0.736833 0.702571 0.5
607 1 0.736833 0.722829 0.5
537 1 0.754376 0.631671 0.5
540 1 0.754376 0.672186 0.5
541 1 0.789463 0.631671 0.5
542 1 0.77192 0.6418 0.5
543 1 0.77192 0.662057 0.5
544 1 0.789463 0.672186 0.5
605 1 0.754376 0.692443 0.5
608 1 0.754376 0.732957 0.5
609 1 0.789463 0.692443 0.5
610 1 0.77192 0.702571 0.5
611 1 0.77192 0.722829 0.5
612 1 0.789463 0.732957 0.5
613 1 0.22808 0.753214 0.5
614 1 0.210537 0.763343 0.5
615 1 0.210537 0.7836 0.5
616 1 0.22808 0.793729 0.5
618 1 0.245624 0.763343 0.5
619 1 0.245624 0.7836 0.5
617 1 0.263167 0.753214 0.5
620 1 0.263167 0.793729 0.5
621 1 0.298253 0.753214 0.5
622 1 0.28071 0.763343 0.5
623 1 0.28071 0.7836 0.5
624 1 0.298253 0.793729 0.5
625 1 0.33334 0.753214 0.5
626 1 0.315796 0.763343 0.5
627 1 0.315796 0.7836 0.5
628 1 0.33334 0.793729 0.5
629 1 0.368426 0.753214 0.5
630 1 0.350883 0.763343 0.5
631 1 0.350883 0.7836 0.5
632 1 0.368426 0.793729 0.5
633 1 0.403512 0.753214 0.5
634 1 0.385969 0.763343 0.5
635 1 0.385969 0.7836 0.5
636 1 0.403512 0.793729 0.5
637 1 0.438599 0.753214 0.5
638 1 0.421056 0.763343 0.5
639 1 0.421056 0.7836 0.5
640 1 0.438599 0.793729 0.5
641 1 0.473685 0.753214 0.5
642 1 0.456142 0.763343 0.5
643 1 0.456142 0.7836 0.5
644 1 0.473685 0.793729 0.5
646 1 0.491228 0.763343 0.5
647 1 0.491228 0.7836 0.5
645 1 0.508772 0.753214 0.5
648 1 0.508772 0.793729 0.5
649 1 0.543858 0.753214 0.5
650 1 0.526315 0.763343 0.5
651 1 0.526315 0.7836 0.5
652 1 0.543858 0.793729 0.5
653 1 0.578944 0.753214 0.5
654 1 0.561401 0.763343 0.5
655 1 0.561401 0.7836 0.5
656 1 0.578944 0.793729 0.5
657 1 0.614031 0.753214 0.5
658 1 0.596488 0.763343 0.5
659 1 0.596488 0.7836 0.5
660 1 0.614031 0.793729 0.5
661 1 0.649117 0.753214 0.5
662 1 0.631574 0.763343 0.5
663 1 0.631574 0.7836 0.5
664 1 0.649117 0.793729 0.5
665 1 0.684204 0.753214 0.5
666 1 0.66666 0.763343 0.5
667 1 0.66666 0.7836 0.5
668 1 0.684204 0.793729 0.5
669 1 0.71929 0.753214 0.5
670 1 0.701747 0.763343 0.5
671 1 0.701747 0.7836 0.5
672 1 0.71929 0.793729 0.5
674 1 0.736833 0.763343 0.5
675 1 0.736833 0.7836 0.5
673 1 0.754376 0.753214 0.5
676 1 0.754376 0.793729 0.5
677 1 0.789463 0.753214 0.5
678 1 0.77192 0.763343 0.5
679 1 0.77192 0.7836 0.5
680 1 0.789463 0.793729 0.5
ITEM: TIMESTEP
1000
ITEM: NUMBER OF ATOMS
680
ITEM: BOX BOUNDS ff ff ff
-3.5000000000000000e+01 3.5000000000000000e+01
-3.5000000000000000e+01 3.5000000000000000e+01
-1.5000000000000000e+01 1.5000000000000000e+01
ITEM: ATOMS id type xs ys zs
1 1 0.227801 0.210842 0.504926
2 1 0.210537 0.221682 0.5
3 1 0.210537 0.242081 0.5
4 1 0.228019 0.252013 0.502365
6 1 0.245385 0.221111 0.508665
7 1 0.245569 0.241607 0.50621
5 1 0.262431 0.210763 0.514557
8 1 0.26296 0.25159 0.507441
9 1 0.297309 0.21136 0.521784
10 1 0.279907 0.22106 0.518007
11 1 0.280183 0.241177 0.512967
12 1 0.29717 0.251685 0.515634
13 1 0.332321 0.211501 0.522425
14 1 0.314597 0.221079 0.520059
15 1 0.314377 0.241564 0.514599
16 1 0.332571 0.251523 0.514663
17 1 0.367281 0.210184 0.520525
18 1 0.350204 0.220949 0.519408
19 1 0.349725 0.24072 0.514655
20 1 0.36757 0.25086 0.512644
21 1 0.402153 0.211506 0.510668
22 1 0.384446 0.220102 0.515971
23 1 0.384636 0.240595 0.513679
24 1 0.402298 0.250719 0.513997
25 1 0.43747 0.211928 0.502486
26 1 0.419576 0.221073 0.509898
27 1 0.419779 0.241102 0.514046
28 1 0.437878 0.250412 0.515924
29 1 0.472778 0.21142 0.49886
30 1 0.455052 0.220854 0.503649
31 1 0.456067 0.240981 0.512672
32 1 0.473859 0.251269 0.512477
34 1 0.490329 0.221407 0.500002
35 1 0.491003 0.241634 0.504718
33 1 0.508173 0.211897 0.497974
36 1 0.508616 0.251206 0.507356
37 1 0.543951 0.210813 0.502022
38 1 0.526103 0.221382 0.502339
39 1 0.526144 0.241079 0.506111
40 1 0.543759 0.251103 0.511086
41 1 0.578841 0.211554 0.515401
42 1 0.561146 0.220524 0.509451
43 1 0.561139 0.241045 0.509087
44 1 0.578445 0.251173 0.51146
45 1 0.614092 0.21188 0.515269
46 1 0.596435 0.221658 0.514104
47 1 0.596106 0.241402 0.512456
48 1 0.613557 0.251786 0.513832
49 1 0.648712 0.211545 0.515761
50 1 0.631131 0.222112 0.516155
51 1 0.631682 0.242286 0.515088
52 1 0.649201 0.251684 0.517332
53 1 0.683864 0.211605 0.513307
54 1 0.665819 0.221613 0.513366
55 1 0.66651 0.241576 0.513402
56 1 0.683824 0.251648 0.507754
57 1 0.718547 0.211562 0.507633
58 1 0.700882 0.220898 0.50925
59 1 0.700905 0.241433 0.505808
60 1 0.718819 0.251208 0.504668
62 1 0.736163 0.221213 0.505733
63 1 0.736692 0.241212 0.504426
61 1 0.754163 0.211302 0.505156
64 1 0.754593 0.251117 0.503085
65 1 0.789463 0.210448 0.5
66 1 0.77251 0.221065 0.504941
67 1 0.772152 0.240868 0.503842
68 1 0.789463 0.251138 0.5
69 1 0.227686 0.271925 0.501277
70 1 0.210537 0.281958 0.5
71 1 0.210537 0.301721 0.5
72 1 0.227716 0.311925 0.497873
74 1 0.245284 0.281963 0.502266
75 1 0.245206 0.301742 0.499849
137 1 0.2284 0.332044 0.497828
138 1 0.210537 0.342763 0.5
139 1 0.210537 0.362272 0.5
140 1 0.228059 0.371598 0.500454
142 1 0.245729 0.341792 0.496752
143 1 0.245292 0.361345 0.499682
73 1 0.262729 0.271184 0.501934
76 1 0.262481 0.311057 0.496675
77 1 0.297307 0.271768 0.508111
78 1 0.279859 0.281445 0.502597
79 1 0.279963 0.301365 0.499373
80 1 0.297636 0.311376 0.49902
81 1 0.333105 0.271142 0.510305
82 1 0.315485 0.281558 0.507202
83 1 0.31626 0.301608 0.499679
84 1 0.333997 0.311484 0.500042
85 1 0.36836 0.27159 0.512125
86 1 0.350861 0.280988 0.509436
87 1 0.351137 0.300856 0.505554
88 1 0.368583 0.3109 0.50753
141 1 0.263246 0.331261 0.495876
144 1 0.262917 0.371294 0.499278
145 1 0.29829 0.331418 0.495973
146 1 0.280526 0.341214 0.495242
147 1 0.280511 0.362021 0.498416
148 1 0.297676 0.371401 0.498289
149 1 0.333955 0.331834 0.498577
150 1 0.315903 0.341406 0.498461
151 1 0.315927 0.361647 0.499124
152 1 0.334372 0.37143 0.499821
153 1 0.368898 0.331123 0.504793
154 1 0.351519 0.341484 0.501692
155 1 0.351685 0.361579 0.503237
156 1 0.369612 0.370753 0.505921
89 1 0.403174 0.270582 0.514673
90 1 0.385955 0.281361 0.511552
91 1 0.386055 0.301355 0.510221
92 1 0.403495 0.311671 0.510795
93 1 0.437471 0.270906 0.517813
94 1 0.420697 0.280141 0.518674
95 1 0.420391 0.300596 0.515951
96 1 0.437641 0.310848 0.512642
97 1 0.473229 0.271633 0.512261
98 1 0.455237 0.281329 0.516174
99 1 0.454598 0.300799 0.513057
100 1 0.472546 0.311 0.510785
102 1 0.490862 0.280978 0.511353
103 1 0.489823 0.300838 0.510397
157 1 0.403285 0.331922 0.507879
158 1 0.386035 0.341724 0.508296
159 1 0.386723 0.361035 0.506353
160 1 0.404623 0.37056 0.505207
161 1 0.438322 0.330536 0.508091
162 1 0.420816 0.34068 0.505494
163 1 0.421841 0.360439 0.504325
164 1 0.438555 0.37024 0.508766
165 1 0.473077 0.330814 0.508719
166 1 0.456196 0.340635 0.507101
167 1 0.456074 0.360537 0.508546
168 1 0.473856 0.3709 0.507885
170 1 0.489777 0.340537 0.508835
171 1 0.490495 0.36064 0.5072
101 1 0.508533 0.270655 0.510294
104 1 0.507527 0.310962 0.508746
105 1 0.543867 0.271137 0.512701
106 1 0.526053 0.280719 0.511578
107 1 0.525435 0.301072 0.509259
108 1 0.542919 0.311233 0.510018
109 1 0.578934 0.271418 0.513261
110 1 0.561822 0.280887 0.512447
111 1 0.561202 0.301306 0.511421
112 1 0.578332 0.311855 0.508288
113 1 0.613556 0.271533 0.513557
114 1 0.596035 0.281142 0.515332
115 1 0.595566 0.301942 0.513025
116 1 0.613145 0.310868 0.510578
169 1 0.507182 0.330728 0.509446
172 1 0.507557 0.370919 0.504259
173 1 0.542271 0.331145 0.508623
174 1 0.524843 0.341211 0.508716
175 1 0.524763 0.36111 0.505697
176 1 0.542225 0.370885 0.502072
177 1 0.577647 0.331471 0.505845
178 1 0.55964 0.34127 0.50612
179 1 0.559543 0.360955 0.500912
180 1 0.577641 0.370495 0.501853
181 1 0.612718 0.330371 0.504533
182 1 0.595563 0.340822 0.50388
183 1 0.594965 0.360583 0.502379
184 1 0.61275 0.370314 0.501096
117 1 0.648928 0.271221 0.510872
118 1 0.631572 0.281332 0.511742
119 1 0.631186 0.301367 0.509072
120 1 0.648263 0.311691 0.50546
121 1 0.683411 0.27134 0.506627
122 1 0.6661 0.281805 0.509009
123 1 0.666026 0.301558 0.503609
124 1 0.683662 0.310438 0.503917
125 1 0.719184 0.271218 0.504475
126 1 0.701565 0.281266 0.506248
127 1 0.701746 0.300731 0.504636
128 1 0.719104 0.310312 0.504705
130 1 0.737156 0.280756 0.502461
131 1 0.736977 0.301006 0.504287
185 1 0.647967 0.330844 0.50537
186 1 0.630405 0.340154 0.504736
187 1 0.630468 0.36017 0.504373
188 1 0.648382 0.370011 0.506872
189 1 0.683722 0.330456 0.503891
190 1 0.66642 0.340097 0.506101
191 1 0.666407 0.359975 0.509436
192 1 0.684047 0.370375 0.50894
193 1 0.718776 0.330292 0.503215
194 1 0.701353 0.340042 0.504644
195 1 0.701801 0.359753 0.50578
196 1 0.719533 0.370036 0.505554
198 1 0.736258 0.340205 0.501579
199 1 0.736445 0.360095 0.504834
129 1 0.754801 0.271228 0.503582
132 1 0.754242 0.310964 0.497751
133 1 0.789463 0.271071 0.5
134 1 0.772172 0.281148 0.500917
135 1 0.772577 0.300806 0.497347
136 1 0.789463 0.311163 0.5
197 1 0.754043 0.330899 0.498665
200 1 0.753661 0.370586 0.502107
201 1 0.789463 0.33133 0.5
202 1 0.771788 0.341337 0.50019
203 1 0.77158 0.361297 0.502007
204 1 0.789463 0.371024 0.5
205 1 0.228756 0.391738 0.501951
206 1 0.210537 0.400856 0.5
207 1 0.210537 0.42108 0.5
208 1 0.228015 0.430896 0.500564
210 1 0.246115 0.401563 0.501299
211 1 0.246028 0.421227 0.499981
273 1 0.228447 0.450889 0.501434
274 1 0.210537 0.459972 0.5
275 1 0.210537 0.479807 0.5
276 1 0.22814 0.48924 0.505378
278 1 0.246081 0.459779 0.505283
279 1 0.245827 0.479594 0.508074
209 1 0.262997 0.391579 0.502247
212 1 0.263862 0.430283 0.500338
213 1 0.297646 0.390918 0.499813
214 1 0.280616 0.400616 0.502196
215 1 0.280937 0.420269 0.498894
216 1 0.299118 0.429998 0.497347
217 1 0.333671 0.391176 0.499789
218 1 0.315821 0.400922 0.498207
219 1 0.316069 0.420763 0.497455
220 1 0.334196 0.430338 0.49948
221 1 0.368891 0.391133 0.500091
222 1 0.351044 0.400626 0.496455
223 1 0.351842 0.420332 0.498202
224 1 0.369333 0.430261 0.499773
277 1 0.263778 0.449793 0.50328
280 1 0.26369 0.489985 0.508956
281 1 0.299621 0.449998 0.499068
282 1 0.281525 0.45992 0.502038
283 1 0.28108 0.479828 0.506563
284 1 0.298542 0.489922 0.503905
285 1 0.334088 0.450447 0.502932
286 1 0.316729 0.459907 0.50065
287 1 0.316573 0.480079 0.500889
288 1 0.333588 0.490637 0.501001
289 1 0.368503 0.450173 0.501695
290 1 0.351074 0.460183 0.500999
291 1 0.350822 0.480408 0.500832
292 1 0.36792 0.490193 0.500345
225 1 0.403656 0.390581 0.504327
226 1 0.386527 0.400225 0.501955
227 1 0.386713 0.42055 0.499897
228 1 0.403829 0.430472 0.500361
229 1 0.438303 0.390497 0.507998
230 1 0.420991 0.400835 0.504851
231 1 0.421071 0.420624 0.501482
232 1 0.438433 0.431207 0.500625
233 1 0.473257 0.390988 0.506718
234 1 0.455658 0.400998 0.506856
235 1 0.455682 0.421402 0.504349
236 1 0.473131 0.429748 0.504755
238 1 0.49108 0.400059 0.504739
239 1 0.490873 0.420277 0.502726
293 1 0.402875 0.450311 0.497626
294 1 0.386055 0.460499 0.500192
295 1 0.385644 0.480031 0.500834
296 1 0.402781 0.490982 0.499056
297 1 0.438183 0.451206 0.49584
298 1 0.420124 0.460434 0.494031
299 1 0.420459 0.480815 0.495498
300 1 0.438319 0.490092 0.492899
301 1 0.473252 0.449754 0.497906
302 1 0.455877 0.460933 0.493948
303 1 0.455831 0.480714 0.491492
304 1 0.473605 0.490235 0.49383
306 1 0.490442 0.459566 0.497154
307 1 0.49078 0.479642 0.495933
237 1 0.507823 0.390304 0.50334
240 1 0.508116 0.430227 0.500631
241 1 0.542827 0.39052 0.500972
242 1 0.525164 0.399892 0.499636
243 1 0.52561 0.419911 0.499695
244 1 0.543554 0.429851 0.498011
245 1 0.578098 0.390513 0.501143
246 1 0.56042 0.399949 0.499982
247 1 0.560963 0.419934 0.50053
248 1 0.578313 0.430116 0.499249
249 1 0.612911 0.390335 0.5005
250 1 0.595745 0.400649 0.502099
251 1 0.595897 0.420138 0.500612
252 1 0.613462 0.430263 0.50209
305 1 0.508636 0.449924 0.498231
308 1 0.508732 0.49014 0.497563
309 1 0.543472 0.450094 0.499069
310 1 0.526119 0.460331 0.500572
311 1 0.526257 0.480632 0.498269
312 1 0.544196 0.489932 0.498858
313 1 0.578626 0.449996 0.499493
314 1 0.560807 0.459419 0.499828
315 1 0.561508 0.47945 0.50086
316 1 0.579159 0.489896 0.498287
317 1 0.613491 0.449969 0.497727
318 1 0.596187 0.459655 0.500331
319 1 0.596239 0.479462 0.500731
320 1 0.614021 0.489229 0.49925
253 1 0.647802 0.389788 0.502948
254 1 0.630707 0.400006 0.500688
255 1 0.631356 0.419844 0.501853
256 1 0.649392 0.429189 0.501383
257 1 0.683897 0.389872 0.506775
258 1 0.665148 0.399541 0.503573
259 1 0.666232 0.419296 0.500927
260 1 0.683704 0.429473 0.503648
261 1 0.719276 0.389782 0.507964
262 1 0.701571 0.399713 0.507012
263 1 0.701501 0.419591 0.507793
264 1 0.719228 0.429661 0.509753
266 1 0.736458 0.400028 0.50526
267 1 0.736512 0.420242 0.507861
321 1 0.649098 0.449558 0.501462
322 1 0.631231 0.459304 0.499441
323 1 0.631416 0.479496 0.497032
324 1 0.648793 0.489699 0.499975
325 1 0.683543 0.449983 0.505259
326 1 0.665948 0.459844 0.501782
327 1 0.66643 0.479748 0.500282
328 1 0.684043 0.489348 0.503301
329 1 0.718703 0.449722 0.50705
330 1 0.70097 0.459699 0.506542
331 1 0.70133 0.479366 0.505155
332 1 0.718743 0.490086 0.504011
334 1 0.736435 0.45952 0.506834
335 1 0.736323 0.479948 0.503215
265 1 0.754326 0.390671 0.502204
268 1 0.753834 0.429937 0.508907
269 1 0.789463 0.390625 0.5
270 1 0.771802 0.400302 0.501979
271 1 0.7713 0.420163 0.503685
272 1 0.789463 0.429021 0.5
333 1 0.754185 0.449827 0.507163
336 1 0.754432 0.489372 0.502549
337 1 0.789463 0.449297 0.5
338 1 0.772224 0.45957 0.504174
339 1 0.77237 0.480016 0.501051